V -t * -v 1.0a5 -a 0
A -t * -n 1 -p 0 -o 0x7fffffff -c 30 -a 1
A -t * -h 1 -m 1073741823 -s 0
n -t * -a 4 -s 4 -S UP -v circle -c black -i black
n -t * -a 0 -s 0 -S UP -v circle -c black -i black
n -t * -a 1 -s 1 -S UP -v circle -c black -i black
n -t * -a 2 -s 2 -S UP -v circle -c black -i black
n -t * -a 3 -s 3 -S UP -v circle -c black -i black
l -t * -s 1 -d 3 -S UP -r 3000000 -D 1e-08 -c black
l -t * -s 3 -d 2 -S UP -r 9600 -D 0.14999999999999999 -c black
l -t * -s 2 -d 4 -S UP -r 9600 -D 0.14999999999999999 -c black
l -t * -s 4 -d 0 -S UP -r 3000000 -D 5.0000000000000004e-08 -c black
+ -t 0.8 -s 0 -d 4 -p tcp -e 40 -c 0 -i 0 -a 0 -x {0.0 1.0 0 ------- null}
- -t 0.8 -s 0 -d 4 -p tcp -e 40 -c 0 -i 0 -a 0 -x {0.0 1.0 0 ------- null}
h -t 0.8 -s 0 -d 4 -p tcp -e 40 -c 0 -i 0 -a 0 -x {0.0 1.0 -1 ------- null}
r -t 0.800106716666667 -s 0 -d 4 -p tcp -e 40 -c 0 -i 0 -a 0 -x {0.0 1.0 0 ------- null}
+ -t 0.800106716666667 -s 4 -d 2 -p tcp -e 40 -c 0 -i 0 -a 0 -x {0.0 1.0 0 ------- null}
- -t 0.800106716666667 -s 4 -d 2 -p tcp -e 40 -c 0 -i 0 -a 0 -x {0.0 1.0 0 ------- null}
h -t 0.800106716666667 -s 4 -d 2 -p tcp -e 40 -c 0 -i 0 -a 0 -x {0.0 1.0 -1 ------- null}
r -t 0.98344005 -s 4 -d 2 -p tcp -e 40 -c 0 -i 0 -a 0 -x {0.0 1.0 0 ------- null}
+ -t 0.98344005 -s 2 -d 3 -p tcp -e 40 -c 0 -i 0 -a 0 -x {0.0 1.0 0 ------- null}
- -t 0.98344005 -s 2 -d 3 -p tcp -e 40 -c 0 -i 0 -a 0 -x {0.0 1.0 0 ------- null}
h -t 0.98344005 -s 2 -d 3 -p tcp -e 40 -c 0 -i 0 -a 0 -x {0.0 1.0 -1 ------- null}
r -t 1.16677338333333 -s 2 -d 3 -p tcp -e 40 -c 0 -i 0 -a 0 -x {0.0 1.0 0 ------- null}
+ -t 1.16677338333333 -s 3 -d 1 -p tcp -e 40 -c 0 -i 0 -a 0 -x {0.0 1.0 0 ------- null}
- -t 1.16677338333333 -s 3 -d 1 -p tcp -e 40 -c 0 -i 0 -a 0 -x {0.0 1.0 0 ------- null}
h -t 1.16677338333333 -s 3 -d 1 -p tcp -e 40 -c 0 -i 0 -a 0 -x {0.0 1.0 -1 ------- null}
r -t 1.16688006 -s 3 -d 1 -p tcp -e 40 -c 0 -i 0 -a 0 -x {0.0 1.0 0 ------- null}
+ -t 1.16688006 -s 1 -d 3 -p ack -e 40 -c 0 -i 1 -a 0 -x {1.0 0.0 0 ------- null}
- -t 1.16688006 -s 1 -d 3 -p ack -e 40 -c 0 -i 1 -a 0 -x {1.0 0.0 0 ------- null}
h -t 1.16688006 -s 1 -d 3 -p ack -e 40 -c 0 -i 1 -a 0 -x {1.0 0.0 -1 ------- null}
r -t 1.16698673666667 -s 1 -d 3 -p ack -e 40 -c 0 -i 1 -a 0 -x {1.0 0.0 0 ------- null}
+ -t 1.16698673666667 -s 3 -d 2 -p ack -e 40 -c 0 -i 1 -a 0 -x {1.0 0.0 0 ------- null}
- -t 1.16698673666667 -s 3 -d 2 -p ack -e 40 -c 0 -i 1 -a 0 -x {1.0 0.0 0 ------- null}
h -t 1.16698673666667 -s 3 -d 2 -p ack -e 40 -c 0 -i 1 -a 0 -x {1.0 0.0 -1 ------- null}
r -t 1.35032007 -s 3 -d 2 -p ack -e 40 -c 0 -i 1 -a 0 -x {1.0 0.0 0 ------- null}
+ -t 1.35032007 -s 2 -d 4 -p ack -e 40 -c 0 -i 1 -a 0 -x {1.0 0.0 0 ------- null}
- -t 1.35032007 -s 2 -d 4 -p ack -e 40 -c 0 -i 1 -a 0 -x {1.0 0.0 0 ------- null}
h -t 1.35032007 -s 2 -d 4 -p ack -e 40 -c 0 -i 1 -a 0 -x {1.0 0.0 -1 ------- null}
r -t 1.53365340333333 -s 2 -d 4 -p ack -e 40 -c 0 -i 1 -a 0 -x {1.0 0.0 0 ------- null}
+ -t 1.53365340333333 -s 4 -d 0 -p ack -e 40 -c 0 -i 1 -a 0 -x {1.0 0.0 0 ------- null}
- -t 1.53365340333333 -s 4 -d 0 -p ack -e 40 -c 0 -i 1 -a 0 -x {1.0 0.0 0 ------- null}
h -t 1.53365340333333 -s 4 -d 0 -p ack -e 40 -c 0 -i 1 -a 0 -x {1.0 0.0 -1 ------- null}
r -t 1.53376012 -s 4 -d 0 -p ack -e 40 -c 0 -i 1 -a 0 -x {1.0 0.0 0 ------- null}
+ -t 1.53376012 -s 0 -d 4 -p tcp -e 1040 -c 0 -i 2 -a 0 -x {0.0 1.0 1 ------- null}
- -t 1.53376012 -s 0 -d 4 -p tcp -e 1040 -c 0 -i 2 -a 0 -x {0.0 1.0 1 ------- null}
h -t 1.53376012 -s 0 -d 4 -p tcp -e 1040 -c 0 -i 2 -a 0 -x {0.0 1.0 -1 ------- null}
+ -t 1.53376012 -s 0 -d 4 -p tcp -e 1040 -c 0 -i 3 -a 0 -x {0.0 1.0 2 ------- null}
- -t 1.53653345333333 -s 0 -d 4 -p tcp -e 1040 -c 0 -i 3 -a 0 -x {0.0 1.0 2 ------- null}
h -t 1.53653345333333 -s 0 -d 4 -p tcp -e 1040 -c 0 -i 3 -a 0 -x {0.0 1.0 -1 ------- null}
r -t 1.53653350333333 -s 0 -d 4 -p tcp -e 1040 -c 0 -i 2 -a 0 -x {0.0 1.0 1 ------- null}
+ -t 1.53653350333333 -s 4 -d 2 -p tcp -e 1040 -c 0 -i 2 -a 0 -x {0.0 1.0 1 ------- null}
- -t 1.53653350333333 -s 4 -d 2 -p tcp -e 1040 -c 0 -i 2 -a 0 -x {0.0 1.0 1 ------- null}
h -t 1.53653350333333 -s 4 -d 2 -p tcp -e 1040 -c 0 -i 2 -a 0 -x {0.0 1.0 -1 ------- null}
r -t 1.53930683666667 -s 0 -d 4 -p tcp -e 1040 -c 0 -i 3 -a 0 -x {0.0 1.0 2 ------- null}
+ -t 1.53930683666667 -s 4 -d 2 -p tcp -e 1040 -c 0 -i 3 -a 0 -x {0.0 1.0 2 ------- null}
- -t 2.40320017 -s 4 -d 2 -p tcp -e 1040 -c 0 -i 3 -a 0 -x {0.0 1.0 2 ------- null}
h -t 2.40320017 -s 4 -d 2 -p tcp -e 1040 -c 0 -i 3 -a 0 -x {0.0 1.0 -1 ------- null}
r -t 2.55320017 -s 4 -d 2 -p tcp -e 1040 -c 0 -i 2 -a 0 -x {0.0 1.0 1 ------- null}
+ -t 2.55320017 -s 2 -d 3 -p tcp -e 1040 -c 0 -i 2 -a 0 -x {0.0 1.0 1 ------- null}
- -t 2.55320017 -s 2 -d 3 -p tcp -e 1040 -c 0 -i 2 -a 0 -x {0.0 1.0 1 ------- null}
h -t 2.55320017 -s 2 -d 3 -p tcp -e 1040 -c 0 -i 2 -a 0 -x {0.0 1.0 -1 ------- null}
r -t 3.41986683666667 -s 4 -d 2 -p tcp -e 1040 -c 0 -i 3 -a 0 -x {0.0 1.0 2 ------- null}
+ -t 3.41986683666667 -s 2 -d 3 -p tcp -e 1040 -c 0 -i 3 -a 0 -x {0.0 1.0 2 ------- null}
- -t 3.41986683666667 -s 2 -d 3 -p tcp -e 1040 -c 0 -i 3 -a 0 -x {0.0 1.0 2 ------- null}
h -t 3.41986683666667 -s 2 -d 3 -p tcp -e 1040 -c 0 -i 3 -a 0 -x {0.0 1.0 -1 ------- null}
r -t 3.56986683666667 -s 2 -d 3 -p tcp -e 1040 -c 0 -i 2 -a 0 -x {0.0 1.0 1 ------- null}
+ -t 3.56986683666667 -s 3 -d 1 -p tcp -e 1040 -c 0 -i 2 -a 0 -x {0.0 1.0 1 ------- null}
- -t 3.56986683666667 -s 3 -d 1 -p tcp -e 1040 -c 0 -i 2 -a 0 -x {0.0 1.0 1 ------- null}
h -t 3.56986683666667 -s 3 -d 1 -p tcp -e 1040 -c 0 -i 2 -a 0 -x {0.0 1.0 -1 ------- null}
r -t 3.57264018 -s 3 -d 1 -p tcp -e 1040 -c 0 -i 2 -a 0 -x {0.0 1.0 1 ------- null}
+ -t 3.57264018 -s 1 -d 3 -p ack -e 40 -c 0 -i 4 -a 0 -x {1.0 0.0 1 ------- null}
- -t 3.57264018 -s 1 -d 3 -p ack -e 40 -c 0 -i 4 -a 0 -x {1.0 0.0 1 ------- null}
h -t 3.57264018 -s 1 -d 3 -p ack -e 40 -c 0 -i 4 -a 0 -x {1.0 0.0 -1 ------- null}
r -t 3.57274685666667 -s 1 -d 3 -p ack -e 40 -c 0 -i 4 -a 0 -x {1.0 0.0 1 ------- null}
+ -t 3.57274685666667 -s 3 -d 2 -p ack -e 40 -c 0 -i 4 -a 0 -x {1.0 0.0 1 ------- null}
- -t 3.57274685666667 -s 3 -d 2 -p ack -e 40 -c 0 -i 4 -a 0 -x {1.0 0.0 1 ------- null}
h -t 3.57274685666667 -s 3 -d 2 -p ack -e 40 -c 0 -i 4 -a 0 -x {1.0 0.0 -1 ------- null}
+ -t 3.72376012 -s 0 -d 4 -p tcp -e 1040 -c 0 -i 5 -a 0 -x {0.0 1.0 1 ---A--- null}
- -t 3.72376012 -s 0 -d 4 -p tcp -e 1040 -c 0 -i 5 -a 0 -x {0.0 1.0 1 ---A--- null}
h -t 3.72376012 -s 0 -d 4 -p tcp -e 1040 -c 0 -i 5 -a 0 -x {0.0 1.0 -1 ---A--- null}
r -t 3.72653350333333 -s 0 -d 4 -p tcp -e 1040 -c 0 -i 5 -a 0 -x {0.0 1.0 1 ---A--- null}
+ -t 3.72653350333333 -s 4 -d 2 -p tcp -e 1040 -c 0 -i 5 -a 0 -x {0.0 1.0 1 ---A--- null}
- -t 3.72653350333333 -s 4 -d 2 -p tcp -e 1040 -c 0 -i 5 -a 0 -x {0.0 1.0 1 ---A--- null}
h -t 3.72653350333333 -s 4 -d 2 -p tcp -e 1040 -c 0 -i 5 -a 0 -x {0.0 1.0 -1 ---A--- null}
r -t 3.75608019 -s 3 -d 2 -p ack -e 40 -c 0 -i 4 -a 0 -x {1.0 0.0 1 ------- null}
+ -t 3.75608019 -s 2 -d 4 -p ack -e 40 -c 0 -i 4 -a 0 -x {1.0 0.0 1 ------- null}
- -t 3.75608019 -s 2 -d 4 -p ack -e 40 -c 0 -i 4 -a 0 -x {1.0 0.0 1 ------- null}
h -t 3.75608019 -s 2 -d 4 -p ack -e 40 -c 0 -i 4 -a 0 -x {1.0 0.0 -1 ------- null}
r -t 3.93941352333333 -s 2 -d 4 -p ack -e 40 -c 0 -i 4 -a 0 -x {1.0 0.0 1 ------- null}
+ -t 3.93941352333333 -s 4 -d 0 -p ack -e 40 -c 0 -i 4 -a 0 -x {1.0 0.0 1 ------- null}
- -t 3.93941352333333 -s 4 -d 0 -p ack -e 40 -c 0 -i 4 -a 0 -x {1.0 0.0 1 ------- null}
h -t 3.93941352333333 -s 4 -d 0 -p ack -e 40 -c 0 -i 4 -a 0 -x {1.0 0.0 -1 ------- null}
r -t 3.93952024 -s 4 -d 0 -p ack -e 40 -c 0 -i 4 -a 0 -x {1.0 0.0 1 ------- null}
+ -t 3.93952024 -s 0 -d 4 -p tcp -e 1040 -c 0 -i 6 -a 0 -x {0.0 1.0 2 ------- null}
- -t 3.93952024 -s 0 -d 4 -p tcp -e 1040 -c 0 -i 6 -a 0 -x {0.0 1.0 2 ------- null}
h -t 3.93952024 -s 0 -d 4 -p tcp -e 1040 -c 0 -i 6 -a 0 -x {0.0 1.0 -1 ------- null}
+ -t 3.93952024 -s 0 -d 4 -p tcp -e 1040 -c 0 -i 7 -a 0 -x {0.0 1.0 3 ------- null}
- -t 3.94229357333333 -s 0 -d 4 -p tcp -e 1040 -c 0 -i 7 -a 0 -x {0.0 1.0 3 ------- null}
h -t 3.94229357333333 -s 0 -d 4 -p tcp -e 1040 -c 0 -i 7 -a 0 -x {0.0 1.0 -1 ------- null}
r -t 3.94229362333333 -s 0 -d 4 -p tcp -e 1040 -c 0 -i 6 -a 0 -x {0.0 1.0 2 ------- null}
+ -t 3.94229362333333 -s 4 -d 2 -p tcp -e 1040 -c 0 -i 6 -a 0 -x {0.0 1.0 2 ------- null}
r -t 3.94506695666667 -s 0 -d 4 -p tcp -e 1040 -c 0 -i 7 -a 0 -x {0.0 1.0 3 ------- null}
+ -t 3.94506695666667 -s 4 -d 2 -p tcp -e 1040 -c 0 -i 7 -a 0 -x {0.0 1.0 3 ------- null}
r -t 4.43653350333333 -s 2 -d 3 -p tcp -e 1040 -c 0 -i 3 -a 0 -x {0.0 1.0 2 ------- null}
+ -t 4.43653350333333 -s 3 -d 1 -p tcp -e 1040 -c 0 -i 3 -a 0 -x {0.0 1.0 2 ------- null}
- -t 4.43653350333333 -s 3 -d 1 -p tcp -e 1040 -c 0 -i 3 -a 0 -x {0.0 1.0 2 ------- null}
h -t 4.43653350333333 -s 3 -d 1 -p tcp -e 1040 -c 0 -i 3 -a 0 -x {0.0 1.0 -1 ------- null}
r -t 4.43930684666667 -s 3 -d 1 -p tcp -e 1040 -c 0 -i 3 -a 0 -x {0.0 1.0 2 ------- null}
+ -t 4.43930684666667 -s 1 -d 3 -p ack -e 40 -c 0 -i 8 -a 0 -x {1.0 0.0 2 ------- null}
- -t 4.43930684666667 -s 1 -d 3 -p ack -e 40 -c 0 -i 8 -a 0 -x {1.0 0.0 2 ------- null}
h -t 4.43930684666667 -s 1 -d 3 -p ack -e 40 -c 0 -i 8 -a 0 -x {1.0 0.0 -1 ------- null}
r -t 4.43941352333333 -s 1 -d 3 -p ack -e 40 -c 0 -i 8 -a 0 -x {1.0 0.0 2 ------- null}
+ -t 4.43941352333333 -s 3 -d 2 -p ack -e 40 -c 0 -i 8 -a 0 -x {1.0 0.0 2 ------- null}
- -t 4.43941352333333 -s 3 -d 2 -p ack -e 40 -c 0 -i 8 -a 0 -x {1.0 0.0 2 ------- null}
h -t 4.43941352333333 -s 3 -d 2 -p ack -e 40 -c 0 -i 8 -a 0 -x {1.0 0.0 -1 ------- null}
- -t 4.59320017 -s 4 -d 2 -p tcp -e 1040 -c 0 -i 6 -a 0 -x {0.0 1.0 2 ------- null}
h -t 4.59320017 -s 4 -d 2 -p tcp -e 1040 -c 0 -i 6 -a 0 -x {0.0 1.0 -1 ------- null}
r -t 4.62274685666667 -s 3 -d 2 -p ack -e 40 -c 0 -i 8 -a 0 -x {1.0 0.0 2 ------- null}
+ -t 4.62274685666667 -s 2 -d 4 -p ack -e 40 -c 0 -i 8 -a 0 -x {1.0 0.0 2 ------- null}
- -t 4.62274685666667 -s 2 -d 4 -p ack -e 40 -c 0 -i 8 -a 0 -x {1.0 0.0 2 ------- null}
h -t 4.62274685666667 -s 2 -d 4 -p ack -e 40 -c 0 -i 8 -a 0 -x {1.0 0.0 -1 ------- null}
r -t 4.74320017 -s 4 -d 2 -p tcp -e 1040 -c 0 -i 5 -a 0 -x {0.0 1.0 1 ---A--- null}
+ -t 4.74320017 -s 2 -d 3 -p tcp -e 1040 -c 0 -i 5 -a 0 -x {0.0 1.0 1 ---A--- null}
- -t 4.74320017 -s 2 -d 3 -p tcp -e 1040 -c 0 -i 5 -a 0 -x {0.0 1.0 1 ---A--- null}
h -t 4.74320017 -s 2 -d 3 -p tcp -e 1040 -c 0 -i 5 -a 0 -x {0.0 1.0 -1 ---A--- null}
r -t 4.80608019 -s 2 -d 4 -p ack -e 40 -c 0 -i 8 -a 0 -x {1.0 0.0 2 ------- null}
+ -t 4.80608019 -s 4 -d 0 -p ack -e 40 -c 0 -i 8 -a 0 -x {1.0 0.0 2 ------- null}
- -t 4.80608019 -s 4 -d 0 -p ack -e 40 -c 0 -i 8 -a 0 -x {1.0 0.0 2 ------- null}
h -t 4.80608019 -s 4 -d 0 -p ack -e 40 -c 0 -i 8 -a 0 -x {1.0 0.0 -1 ------- null}
r -t 4.80618690666667 -s 4 -d 0 -p ack -e 40 -c 0 -i 8 -a 0 -x {1.0 0.0 2 ------- null}
+ -t 4.80618690666667 -s 0 -d 4 -p tcp -e 1040 -c 0 -i 9 -a 0 -x {0.0 1.0 4 ------- null}
- -t 4.80618690666667 -s 0 -d 4 -p tcp -e 1040 -c 0 -i 9 -a 0 -x {0.0 1.0 4 ------- null}
h -t 4.80618690666667 -s 0 -d 4 -p tcp -e 1040 -c 0 -i 9 -a 0 -x {0.0 1.0 -1 ------- null}
r -t 4.80896029 -s 0 -d 4 -p tcp -e 1040 -c 0 -i 9 -a 0 -x {0.0 1.0 4 ------- null}
+ -t 4.80896029 -s 4 -d 2 -p tcp -e 1040 -c 0 -i 9 -a 0 -x {0.0 1.0 4 ------- null}
- -t 5.45986683666667 -s 4 -d 2 -p tcp -e 1040 -c 0 -i 7 -a 0 -x {0.0 1.0 3 ------- null}
h -t 5.45986683666667 -s 4 -d 2 -p tcp -e 1040 -c 0 -i 7 -a 0 -x {0.0 1.0 -1 ------- null}
r -t 5.60986683666667 -s 4 -d 2 -p tcp -e 1040 -c 0 -i 6 -a 0 -x {0.0 1.0 2 ------- null}
+ -t 5.60986683666667 -s 2 -d 3 -p tcp -e 1040 -c 0 -i 6 -a 0 -x {0.0 1.0 2 ------- null}
- -t 5.60986683666667 -s 2 -d 3 -p tcp -e 1040 -c 0 -i 6 -a 0 -x {0.0 1.0 2 ------- null}
h -t 5.60986683666667 -s 2 -d 3 -p tcp -e 1040 -c 0 -i 6 -a 0 -x {0.0 1.0 -1 ------- null}
r -t 5.75986683666667 -s 2 -d 3 -p tcp -e 1040 -c 0 -i 5 -a 0 -x {0.0 1.0 1 ---A--- null}
+ -t 5.75986683666667 -s 3 -d 1 -p tcp -e 1040 -c 0 -i 5 -a 0 -x {0.0 1.0 1 ---A--- null}
- -t 5.75986683666667 -s 3 -d 1 -p tcp -e 1040 -c 0 -i 5 -a 0 -x {0.0 1.0 1 ---A--- null}
h -t 5.75986683666667 -s 3 -d 1 -p tcp -e 1040 -c 0 -i 5 -a 0 -x {0.0 1.0 -1 ---A--- null}
r -t 5.76264018 -s 3 -d 1 -p tcp -e 1040 -c 0 -i 5 -a 0 -x {0.0 1.0 1 ---A--- null}
+ -t 5.76264018 -s 1 -d 3 -p ack -e 40 -c 0 -i 10 -a 0 -x {1.0 0.0 2 ------- null}
- -t 5.76264018 -s 1 -d 3 -p ack -e 40 -c 0 -i 10 -a 0 -x {1.0 0.0 2 ------- null}
h -t 5.76264018 -s 1 -d 3 -p ack -e 40 -c 0 -i 10 -a 0 -x {1.0 0.0 -1 ------- null}
r -t 5.76274685666667 -s 1 -d 3 -p ack -e 40 -c 0 -i 10 -a 0 -x {1.0 0.0 2 ------- null}
+ -t 5.76274685666667 -s 3 -d 2 -p ack -e 40 -c 0 -i 10 -a 0 -x {1.0 0.0 2 ------- null}
- -t 5.76274685666667 -s 3 -d 2 -p ack -e 40 -c 0 -i 10 -a 0 -x {1.0 0.0 2 ------- null}
h -t 5.76274685666667 -s 3 -d 2 -p ack -e 40 -c 0 -i 10 -a 0 -x {1.0 0.0 -1 ------- null}
r -t 5.94608019 -s 3 -d 2 -p ack -e 40 -c 0 -i 10 -a 0 -x {1.0 0.0 2 ------- null}
+ -t 5.94608019 -s 2 -d 4 -p ack -e 40 -c 0 -i 10 -a 0 -x {1.0 0.0 2 ------- null}
- -t 5.94608019 -s 2 -d 4 -p ack -e 40 -c 0 -i 10 -a 0 -x {1.0 0.0 2 ------- null}
h -t 5.94608019 -s 2 -d 4 -p ack -e 40 -c 0 -i 10 -a 0 -x {1.0 0.0 -1 ------- null}
r -t 6.12941352333333 -s 2 -d 4 -p ack -e 40 -c 0 -i 10 -a 0 -x {1.0 0.0 2 ------- null}
+ -t 6.12941352333333 -s 4 -d 0 -p ack -e 40 -c 0 -i 10 -a 0 -x {1.0 0.0 2 ------- null}
- -t 6.12941352333333 -s 4 -d 0 -p ack -e 40 -c 0 -i 10 -a 0 -x {1.0 0.0 2 ------- null}
h -t 6.12941352333333 -s 4 -d 0 -p ack -e 40 -c 0 -i 10 -a 0 -x {1.0 0.0 -1 ------- null}
r -t 6.12952024 -s 4 -d 0 -p ack -e 40 -c 0 -i 10 -a 0 -x {1.0 0.0 2 ------- null}
+ -t 6.12952024 -s 0 -d 4 -p tcp -e 1040 -c 0 -i 11 -a 0 -x {0.0 1.0 5 ------- null}
- -t 6.12952024 -s 0 -d 4 -p tcp -e 1040 -c 0 -i 11 -a 0 -x {0.0 1.0 5 ------- null}
h -t 6.12952024 -s 0 -d 4 -p tcp -e 1040 -c 0 -i 11 -a 0 -x {0.0 1.0 -1 ------- null}
r -t 6.13229362333333 -s 0 -d 4 -p tcp -e 1040 -c 0 -i 11 -a 0 -x {0.0 1.0 5 ------- null}
+ -t 6.13229362333333 -s 4 -d 2 -p tcp -e 1040 -c 0 -i 11 -a 0 -x {0.0 1.0 5 ------- null}
- -t 6.32653350333333 -s 4 -d 2 -p tcp -e 1040 -c 0 -i 9 -a 0 -x {0.0 1.0 4 ------- null}
h -t 6.32653350333333 -s 4 -d 2 -p tcp -e 1040 -c 0 -i 9 -a 0 -x {0.0 1.0 -1 ------- null}
r -t 6.47653350333333 -s 4 -d 2 -p tcp -e 1040 -c 0 -i 7 -a 0 -x {0.0 1.0 3 ------- null}
+ -t 6.47653350333333 -s 2 -d 3 -p tcp -e 1040 -c 0 -i 7 -a 0 -x {0.0 1.0 3 ------- null}
- -t 6.47653350333333 -s 2 -d 3 -p tcp -e 1040 -c 0 -i 7 -a 0 -x {0.0 1.0 3 ------- null}
h -t 6.47653350333333 -s 2 -d 3 -p tcp -e 1040 -c 0 -i 7 -a 0 -x {0.0 1.0 -1 ------- null}
r -t 6.62653350333333 -s 2 -d 3 -p tcp -e 1040 -c 0 -i 6 -a 0 -x {0.0 1.0 2 ------- null}
+ -t 6.62653350333333 -s 3 -d 1 -p tcp -e 1040 -c 0 -i 6 -a 0 -x {0.0 1.0 2 ------- null}
- -t 6.62653350333333 -s 3 -d 1 -p tcp -e 1040 -c 0 -i 6 -a 0 -x {0.0 1.0 2 ------- null}
h -t 6.62653350333333 -s 3 -d 1 -p tcp -e 1040 -c 0 -i 6 -a 0 -x {0.0 1.0 -1 ------- null}
r -t 6.62930684666667 -s 3 -d 1 -p tcp -e 1040 -c 0 -i 6 -a 0 -x {0.0 1.0 2 ------- null}
+ -t 6.62930684666667 -s 1 -d 3 -p ack -e 40 -c 0 -i 12 -a 0 -x {1.0 0.0 2 ------- null}
- -t 6.62930684666667 -s 1 -d 3 -p ack -e 40 -c 0 -i 12 -a 0 -x {1.0 0.0 2 ------- null}
h -t 6.62930684666667 -s 1 -d 3 -p ack -e 40 -c 0 -i 12 -a 0 -x {1.0 0.0 -1 ------- null}
r -t 6.62941352333333 -s 1 -d 3 -p ack -e 40 -c 0 -i 12 -a 0 -x {1.0 0.0 2 ------- null}
+ -t 6.62941352333333 -s 3 -d 2 -p ack -e 40 -c 0 -i 12 -a 0 -x {1.0 0.0 2 ------- null}
- -t 6.62941352333333 -s 3 -d 2 -p ack -e 40 -c 0 -i 12 -a 0 -x {1.0 0.0 2 ------- null}
h -t 6.62941352333333 -s 3 -d 2 -p ack -e 40 -c 0 -i 12 -a 0 -x {1.0 0.0 -1 ------- null}
r -t 6.81274685666667 -s 3 -d 2 -p ack -e 40 -c 0 -i 12 -a 0 -x {1.0 0.0 2 ------- null}
+ -t 6.81274685666667 -s 2 -d 4 -p ack -e 40 -c 0 -i 12 -a 0 -x {1.0 0.0 2 ------- null}
- -t 6.81274685666667 -s 2 -d 4 -p ack -e 40 -c 0 -i 12 -a 0 -x {1.0 0.0 2 ------- null}
h -t 6.81274685666667 -s 2 -d 4 -p ack -e 40 -c 0 -i 12 -a 0 -x {1.0 0.0 -1 ------- null}
r -t 6.99608019 -s 2 -d 4 -p ack -e 40 -c 0 -i 12 -a 0 -x {1.0 0.0 2 ------- null}
+ -t 6.99608019 -s 4 -d 0 -p ack -e 40 -c 0 -i 12 -a 0 -x {1.0 0.0 2 ------- null}
- -t 6.99608019 -s 4 -d 0 -p ack -e 40 -c 0 -i 12 -a 0 -x {1.0 0.0 2 ------- null}
h -t 6.99608019 -s 4 -d 0 -p ack -e 40 -c 0 -i 12 -a 0 -x {1.0 0.0 -1 ------- null}
r -t 6.99618690666667 -s 4 -d 0 -p ack -e 40 -c 0 -i 12 -a 0 -x {1.0 0.0 2 ------- null}
+ -t 6.99618690666667 -s 0 -d 4 -p tcp -e 1040 -c 0 -i 13 -a 0 -x {0.0 1.0 6 ------- null}
- -t 6.99618690666667 -s 0 -d 4 -p tcp -e 1040 -c 0 -i 13 -a 0 -x {0.0 1.0 6 ------- null}
h -t 6.99618690666667 -s 0 -d 4 -p tcp -e 1040 -c 0 -i 13 -a 0 -x {0.0 1.0 -1 ------- null}
r -t 6.99896029 -s 0 -d 4 -p tcp -e 1040 -c 0 -i 13 -a 0 -x {0.0 1.0 6 ------- null}
+ -t 6.99896029 -s 4 -d 2 -p tcp -e 1040 -c 0 -i 13 -a 0 -x {0.0 1.0 6 ------- null}
- -t 7.19320017 -s 4 -d 2 -p tcp -e 1040 -c 0 -i 11 -a 0 -x {0.0 1.0 5 ------- null}
h -t 7.19320017 -s 4 -d 2 -p tcp -e 1040 -c 0 -i 11 -a 0 -x {0.0 1.0 -1 ------- null}
r -t 7.34320017 -s 4 -d 2 -p tcp -e 1040 -c 0 -i 9 -a 0 -x {0.0 1.0 4 ------- null}
+ -t 7.34320017 -s 2 -d 3 -p tcp -e 1040 -c 0 -i 9 -a 0 -x {0.0 1.0 4 ------- null}
- -t 7.34320017 -s 2 -d 3 -p tcp -e 1040 -c 0 -i 9 -a 0 -x {0.0 1.0 4 ------- null}
h -t 7.34320017 -s 2 -d 3 -p tcp -e 1040 -c 0 -i 9 -a 0 -x {0.0 1.0 -1 ------- null}
r -t 7.49320017 -s 2 -d 3 -p tcp -e 1040 -c 0 -i 7 -a 0 -x {0.0 1.0 3 ------- null}
+ -t 7.49320017 -s 3 -d 1 -p tcp -e 1040 -c 0 -i 7 -a 0 -x {0.0 1.0 3 ------- null}
- -t 7.49320017 -s 3 -d 1 -p tcp -e 1040 -c 0 -i 7 -a 0 -x {0.0 1.0 3 ------- null}
h -t 7.49320017 -s 3 -d 1 -p tcp -e 1040 -c 0 -i 7 -a 0 -x {0.0 1.0 -1 ------- null}
r -t 7.49597351333333 -s 3 -d 1 -p tcp -e 1040 -c 0 -i 7 -a 0 -x {0.0 1.0 3 ------- null}
+ -t 7.49597351333333 -s 1 -d 3 -p ack -e 40 -c 0 -i 14 -a 0 -x {1.0 0.0 3 ------- null}
- -t 7.49597351333333 -s 1 -d 3 -p ack -e 40 -c 0 -i 14 -a 0 -x {1.0 0.0 3 ------- null}
h -t 7.49597351333333 -s 1 -d 3 -p ack -e 40 -c 0 -i 14 -a 0 -x {1.0 0.0 -1 ------- null}
r -t 7.49608019 -s 1 -d 3 -p ack -e 40 -c 0 -i 14 -a 0 -x {1.0 0.0 3 ------- null}
+ -t 7.49608019 -s 3 -d 2 -p ack -e 40 -c 0 -i 14 -a 0 -x {1.0 0.0 3 ------- null}
- -t 7.49608019 -s 3 -d 2 -p ack -e 40 -c 0 -i 14 -a 0 -x {1.0 0.0 3 ------- null}
h -t 7.49608019 -s 3 -d 2 -p ack -e 40 -c 0 -i 14 -a 0 -x {1.0 0.0 -1 ------- null}
r -t 7.67941352333333 -s 3 -d 2 -p ack -e 40 -c 0 -i 14 -a 0 -x {1.0 0.0 3 ------- null}
+ -t 7.67941352333333 -s 2 -d 4 -p ack -e 40 -c 0 -i 14 -a 0 -x {1.0 0.0 3 ------- null}
- -t 7.67941352333333 -s 2 -d 4 -p ack -e 40 -c 0 -i 14 -a 0 -x {1.0 0.0 3 ------- null}
h -t 7.67941352333333 -s 2 -d 4 -p ack -e 40 -c 0 -i 14 -a 0 -x {1.0 0.0 -1 ------- null}
r -t 7.86274685666667 -s 2 -d 4 -p ack -e 40 -c 0 -i 14 -a 0 -x {1.0 0.0 3 ------- null}
+ -t 7.86274685666667 -s 4 -d 0 -p ack -e 40 -c 0 -i 14 -a 0 -x {1.0 0.0 3 ------- null}
- -t 7.86274685666667 -s 4 -d 0 -p ack -e 40 -c 0 -i 14 -a 0 -x {1.0 0.0 3 ------- null}
h -t 7.86274685666667 -s 4 -d 0 -p ack -e 40 -c 0 -i 14 -a 0 -x {1.0 0.0 -1 ------- null}
r -t 7.86285357333333 -s 4 -d 0 -p ack -e 40 -c 0 -i 14 -a 0 -x {1.0 0.0 3 ------- null}
- -t 8.05986683666667 -s 4 -d 2 -p tcp -e 1040 -c 0 -i 13 -a 0 -x {0.0 1.0 6 ------- null}
h -t 8.05986683666667 -s 4 -d 2 -p tcp -e 1040 -c 0 -i 13 -a 0 -x {0.0 1.0 -1 ------- null}
r -t 8.20986683666667 -s 4 -d 2 -p tcp -e 1040 -c 0 -i 11 -a 0 -x {0.0 1.0 5 ------- null}
+ -t 8.20986683666667 -s 2 -d 3 -p tcp -e 1040 -c 0 -i 11 -a 0 -x {0.0 1.0 5 ------- null}
- -t 8.20986683666667 -s 2 -d 3 -p tcp -e 1040 -c 0 -i 11 -a 0 -x {0.0 1.0 5 ------- null}
h -t 8.20986683666667 -s 2 -d 3 -p tcp -e 1040 -c 0 -i 11 -a 0 -x {0.0 1.0 -1 ------- null}
r -t 8.35986683666667 -s 2 -d 3 -p tcp -e 1040 -c 0 -i 9 -a 0 -x {0.0 1.0 4 ------- null}
+ -t 8.35986683666667 -s 3 -d 1 -p tcp -e 1040 -c 0 -i 9 -a 0 -x {0.0 1.0 4 ------- null}
- -t 8.35986683666667 -s 3 -d 1 -p tcp -e 1040 -c 0 -i 9 -a 0 -x {0.0 1.0 4 ------- null}
h -t 8.35986683666667 -s 3 -d 1 -p tcp -e 1040 -c 0 -i 9 -a 0 -x {0.0 1.0 -1 ------- null}
r -t 8.36264018 -s 3 -d 1 -p tcp -e 1040 -c 0 -i 9 -a 0 -x {0.0 1.0 4 ------- null}
+ -t 8.36264018 -s 1 -d 3 -p ack -e 40 -c 0 -i 15 -a 0 -x {1.0 0.0 4 ------- null}
- -t 8.36264018 -s 1 -d 3 -p ack -e 40 -c 0 -i 15 -a 0 -x {1.0 0.0 4 ------- null}
h -t 8.36264018 -s 1 -d 3 -p ack -e 40 -c 0 -i 15 -a 0 -x {1.0 0.0 -1 ------- null}
r -t 8.36274685666667 -s 1 -d 3 -p ack -e 40 -c 0 -i 15 -a 0 -x {1.0 0.0 4 ------- null}
+ -t 8.36274685666667 -s 3 -d 2 -p ack -e 40 -c 0 -i 15 -a 0 -x {1.0 0.0 4 ------- null}
- -t 8.36274685666667 -s 3 -d 2 -p ack -e 40 -c 0 -i 15 -a 0 -x {1.0 0.0 4 ------- null}
h -t 8.36274685666667 -s 3 -d 2 -p ack -e 40 -c 0 -i 15 -a 0 -x {1.0 0.0 -1 ------- null}
r -t 8.54608019 -s 3 -d 2 -p ack -e 40 -c 0 -i 15 -a 0 -x {1.0 0.0 4 ------- null}
+ -t 8.54608019 -s 2 -d 4 -p ack -e 40 -c 0 -i 15 -a 0 -x {1.0 0.0 4 ------- null}
- -t 8.54608019 -s 2 -d 4 -p ack -e 40 -c 0 -i 15 -a 0 -x {1.0 0.0 4 ------- null}
h -t 8.54608019 -s 2 -d 4 -p ack -e 40 -c 0 -i 15 -a 0 -x {1.0 0.0 -1 ------- null}
r -t 8.72941352333333 -s 2 -d 4 -p ack -e 40 -c 0 -i 15 -a 0 -x {1.0 0.0 4 ------- null}
+ -t 8.72941352333333 -s 4 -d 0 -p ack -e 40 -c 0 -i 15 -a 0 -x {1.0 0.0 4 ------- null}
- -t 8.72941352333333 -s 4 -d 0 -p ack -e 40 -c 0 -i 15 -a 0 -x {1.0 0.0 4 ------- null}
h -t 8.72941352333333 -s 4 -d 0 -p ack -e 40 -c 0 -i 15 -a 0 -x {1.0 0.0 -1 ------- null}
r -t 8.72952024 -s 4 -d 0 -p ack -e 40 -c 0 -i 15 -a 0 -x {1.0 0.0 4 ------- null}
+ -t 8.72952024 -s 0 -d 4 -p tcp -e 1040 -c 0 -i 16 -a 0 -x {0.0 1.0 7 ------- null}
- -t 8.72952024 -s 0 -d 4 -p tcp -e 1040 -c 0 -i 16 -a 0 -x {0.0 1.0 7 ------- null}
h -t 8.72952024 -s 0 -d 4 -p tcp -e 1040 -c 0 -i 16 -a 0 -x {0.0 1.0 -1 ------- null}
r -t 8.73229362333333 -s 0 -d 4 -p tcp -e 1040 -c 0 -i 16 -a 0 -x {0.0 1.0 7 ------- null}
+ -t 8.73229362333333 -s 4 -d 2 -p tcp -e 1040 -c 0 -i 16 -a 0 -x {0.0 1.0 7 ------- null}
- -t 8.92653350333334 -s 4 -d 2 -p tcp -e 1040 -c 0 -i 16 -a 0 -x {0.0 1.0 7 ------- null}
h -t 8.92653350333334 -s 4 -d 2 -p tcp -e 1040 -c 0 -i 16 -a 0 -x {0.0 1.0 -1 ------- null}
r -t 9.07653350333333 -s 4 -d 2 -p tcp -e 1040 -c 0 -i 13 -a 0 -x {0.0 1.0 6 ------- null}
+ -t 9.07653350333333 -s 2 -d 3 -p tcp -e 1040 -c 0 -i 13 -a 0 -x {0.0 1.0 6 ------- null}
- -t 9.07653350333334 -s 2 -d 3 -p tcp -e 1040 -c 0 -i 13 -a 0 -x {0.0 1.0 6 ------- null}
h -t 9.07653350333334 -s 2 -d 3 -p tcp -e 1040 -c 0 -i 13 -a 0 -x {0.0 1.0 -1 ------- null}
r -t 9.22653350333334 -s 2 -d 3 -p tcp -e 1040 -c 0 -i 11 -a 0 -x {0.0 1.0 5 ------- null}
+ -t 9.22653350333334 -s 3 -d 1 -p tcp -e 1040 -c 0 -i 11 -a 0 -x {0.0 1.0 5 ------- null}
- -t 9.22653350333334 -s 3 -d 1 -p tcp -e 1040 -c 0 -i 11 -a 0 -x {0.0 1.0 5 ------- null}
h -t 9.22653350333334 -s 3 -d 1 -p tcp -e 1040 -c 0 -i 11 -a 0 -x {0.0 1.0 -1 ------- null}
r -t 9.22930684666667 -s 3 -d 1 -p tcp -e 1040 -c 0 -i 11 -a 0 -x {0.0 1.0 5 ------- null}
+ -t 9.22930684666667 -s 1 -d 3 -p ack -e 40 -c 0 -i 17 -a 0 -x {1.0 0.0 5 ------- null}
- -t 9.22930684666667 -s 1 -d 3 -p ack -e 40 -c 0 -i 17 -a 0 -x {1.0 0.0 5 ------- null}
h -t 9.22930684666667 -s 1 -d 3 -p ack -e 40 -c 0 -i 17 -a 0 -x {1.0 0.0 -1 ------- null}
r -t 9.22941352333333 -s 1 -d 3 -p ack -e 40 -c 0 -i 17 -a 0 -x {1.0 0.0 5 ------- null}
+ -t 9.22941352333333 -s 3 -d 2 -p ack -e 40 -c 0 -i 17 -a 0 -x {1.0 0.0 5 ------- null}
- -t 9.22941352333333 -s 3 -d 2 -p ack -e 40 -c 0 -i 17 -a 0 -x {1.0 0.0 5 ------- null}
h -t 9.22941352333333 -s 3 -d 2 -p ack -e 40 -c 0 -i 17 -a 0 -x {1.0 0.0 -1 ------- null}
r -t 9.41274685666667 -s 3 -d 2 -p ack -e 40 -c 0 -i 17 -a 0 -x {1.0 0.0 5 ------- null}
+ -t 9.41274685666667 -s 2 -d 4 -p ack -e 40 -c 0 -i 17 -a 0 -x {1.0 0.0 5 ------- null}
- -t 9.41274685666667 -s 2 -d 4 -p ack -e 40 -c 0 -i 17 -a 0 -x {1.0 0.0 5 ------- null}
h -t 9.41274685666667 -s 2 -d 4 -p ack -e 40 -c 0 -i 17 -a 0 -x {1.0 0.0 -1 ------- null}
r -t 9.59608019 -s 2 -d 4 -p ack -e 40 -c 0 -i 17 -a 0 -x {1.0 0.0 5 ------- null}
+ -t 9.59608019 -s 4 -d 0 -p ack -e 40 -c 0 -i 17 -a 0 -x {1.0 0.0 5 ------- null}
- -t 9.59608019 -s 4 -d 0 -p ack -e 40 -c 0 -i 17 -a 0 -x {1.0 0.0 5 ------- null}
h -t 9.59608019 -s 4 -d 0 -p ack -e 40 -c 0 -i 17 -a 0 -x {1.0 0.0 -1 ------- null}
r -t 9.59618690666667 -s 4 -d 0 -p ack -e 40 -c 0 -i 17 -a 0 -x {1.0 0.0 5 ------- null}
+ -t 9.59618690666667 -s 0 -d 4 -p tcp -e 1040 -c 0 -i 18 -a 0 -x {0.0 1.0 8 ------- null}
- -t 9.59618690666667 -s 0 -d 4 -p tcp -e 1040 -c 0 -i 18 -a 0 -x {0.0 1.0 8 ------- null}
h -t 9.59618690666667 -s 0 -d 4 -p tcp -e 1040 -c 0 -i 18 -a 0 -x {0.0 1.0 -1 ------- null}
r -t 9.59896029 -s 0 -d 4 -p tcp -e 1040 -c 0 -i 18 -a 0 -x {0.0 1.0 8 ------- null}
+ -t 9.59896029 -s 4 -d 2 -p tcp -e 1040 -c 0 -i 18 -a 0 -x {0.0 1.0 8 ------- null}
- -t 9.79320017 -s 4 -d 2 -p tcp -e 1040 -c 0 -i 18 -a 0 -x {0.0 1.0 8 ------- null}
h -t 9.79320017 -s 4 -d 2 -p tcp -e 1040 -c 0 -i 18 -a 0 -x {0.0 1.0 -1 ------- null}
r -t 9.94320017 -s 4 -d 2 -p tcp -e 1040 -c 0 -i 16 -a 0 -x {0.0 1.0 7 ------- null}
+ -t 9.94320017 -s 2 -d 3 -p tcp -e 1040 -c 0 -i 16 -a 0 -x {0.0 1.0 7 ------- null}
- -t 9.94320017 -s 2 -d 3 -p tcp -e 1040 -c 0 -i 16 -a 0 -x {0.0 1.0 7 ------- null}
h -t 9.94320017 -s 2 -d 3 -p tcp -e 1040 -c 0 -i 16 -a 0 -x {0.0 1.0 -1 ------- null}
r -t 10.09320017 -s 2 -d 3 -p tcp -e 1040 -c 0 -i 13 -a 0 -x {0.0 1.0 6 ------- null}
+ -t 10.09320017 -s 3 -d 1 -p tcp -e 1040 -c 0 -i 13 -a 0 -x {0.0 1.0 6 ------- null}
- -t 10.09320017 -s 3 -d 1 -p tcp -e 1040 -c 0 -i 13 -a 0 -x {0.0 1.0 6 ------- null}
h -t 10.09320017 -s 3 -d 1 -p tcp -e 1040 -c 0 -i 13 -a 0 -x {0.0 1.0 -1 ------- null}
r -t 10.0959735133333 -s 3 -d 1 -p tcp -e 1040 -c 0 -i 13 -a 0 -x {0.0 1.0 6 ------- null}
+ -t 10.0959735133333 -s 1 -d 3 -p ack -e 40 -c 0 -i 19 -a 0 -x {1.0 0.0 6 ------- null}
- -t 10.0959735133333 -s 1 -d 3 -p ack -e 40 -c 0 -i 19 -a 0 -x {1.0 0.0 6 ------- null}
h -t 10.0959735133333 -s 1 -d 3 -p ack -e 40 -c 0 -i 19 -a 0 -x {1.0 0.0 -1 ------- null}
r -t 10.09608019 -s 1 -d 3 -p ack -e 40 -c 0 -i 19 -a 0 -x {1.0 0.0 6 ------- null}
+ -t 10.09608019 -s 3 -d 2 -p ack -e 40 -c 0 -i 19 -a 0 -x {1.0 0.0 6 ------- null}
- -t 10.09608019 -s 3 -d 2 -p ack -e 40 -c 0 -i 19 -a 0 -x {1.0 0.0 6 ------- null}
h -t 10.09608019 -s 3 -d 2 -p ack -e 40 -c 0 -i 19 -a 0 -x {1.0 0.0 -1 ------- null}
r -t 10.2794135233333 -s 3 -d 2 -p ack -e 40 -c 0 -i 19 -a 0 -x {1.0 0.0 6 ------- null}
+ -t 10.2794135233333 -s 2 -d 4 -p ack -e 40 -c 0 -i 19 -a 0 -x {1.0 0.0 6 ------- null}
- -t 10.2794135233333 -s 2 -d 4 -p ack -e 40 -c 0 -i 19 -a 0 -x {1.0 0.0 6 ------- null}
h -t 10.2794135233333 -s 2 -d 4 -p ack -e 40 -c 0 -i 19 -a 0 -x {1.0 0.0 -1 ------- null}
r -t 10.4627468566667 -s 2 -d 4 -p ack -e 40 -c 0 -i 19 -a 0 -x {1.0 0.0 6 ------- null}
+ -t 10.4627468566667 -s 4 -d 0 -p ack -e 40 -c 0 -i 19 -a 0 -x {1.0 0.0 6 ------- null}
- -t 10.4627468566667 -s 4 -d 0 -p ack -e 40 -c 0 -i 19 -a 0 -x {1.0 0.0 6 ------- null}
h -t 10.4627468566667 -s 4 -d 0 -p ack -e 40 -c 0 -i 19 -a 0 -x {1.0 0.0 -1 ------- null}
r -t 10.4628535733333 -s 4 -d 0 -p ack -e 40 -c 0 -i 19 -a 0 -x {1.0 0.0 6 ------- null}
+ -t 10.4628535733333 -s 0 -d 4 -p tcp -e 1040 -c 0 -i 20 -a 0 -x {0.0 1.0 9 ------- null}
- -t 10.4628535733333 -s 0 -d 4 -p tcp -e 1040 -c 0 -i 20 -a 0 -x {0.0 1.0 9 ------- null}
h -t 10.4628535733333 -s 0 -d 4 -p tcp -e 1040 -c 0 -i 20 -a 0 -x {0.0 1.0 -1 ------- null}
r -t 10.4656269566667 -s 0 -d 4 -p tcp -e 1040 -c 0 -i 20 -a 0 -x {0.0 1.0 9 ------- null}
+ -t 10.4656269566667 -s 4 -d 2 -p tcp -e 1040 -c 0 -i 20 -a 0 -x {0.0 1.0 9 ------- null}
- -t 10.6598668366667 -s 4 -d 2 -p tcp -e 1040 -c 0 -i 20 -a 0 -x {0.0 1.0 9 ------- null}
h -t 10.6598668366667 -s 4 -d 2 -p tcp -e 1040 -c 0 -i 20 -a 0 -x {0.0 1.0 -1 ------- null}
r -t 10.8098668366667 -s 4 -d 2 -p tcp -e 1040 -c 0 -i 18 -a 0 -x {0.0 1.0 8 ------- null}
+ -t 10.8098668366667 -s 2 -d 3 -p tcp -e 1040 -c 0 -i 18 -a 0 -x {0.0 1.0 8 ------- null}
- -t 10.8098668366667 -s 2 -d 3 -p tcp -e 1040 -c 0 -i 18 -a 0 -x {0.0 1.0 8 ------- null}
h -t 10.8098668366667 -s 2 -d 3 -p tcp -e 1040 -c 0 -i 18 -a 0 -x {0.0 1.0 -1 ------- null}
r -t 10.9598668366667 -s 2 -d 3 -p tcp -e 1040 -c 0 -i 16 -a 0 -x {0.0 1.0 7 ------- null}
+ -t 10.9598668366667 -s 3 -d 1 -p tcp -e 1040 -c 0 -i 16 -a 0 -x {0.0 1.0 7 ------- null}
- -t 10.9598668366667 -s 3 -d 1 -p tcp -e 1040 -c 0 -i 16 -a 0 -x {0.0 1.0 7 ------- null}
h -t 10.9598668366667 -s 3 -d 1 -p tcp -e 1040 -c 0 -i 16 -a 0 -x {0.0 1.0 -1 ------- null}
r -t 10.96264018 -s 3 -d 1 -p tcp -e 1040 -c 0 -i 16 -a 0 -x {0.0 1.0 7 ------- null}
+ -t 10.96264018 -s 1 -d 3 -p ack -e 40 -c 0 -i 21 -a 0 -x {1.0 0.0 7 ------- null}
- -t 10.96264018 -s 1 -d 3 -p ack -e 40 -c 0 -i 21 -a 0 -x {1.0 0.0 7 ------- null}
h -t 10.96264018 -s 1 -d 3 -p ack -e 40 -c 0 -i 21 -a 0 -x {1.0 0.0 -1 ------- null}
r -t 10.9627468566667 -s 1 -d 3 -p ack -e 40 -c 0 -i 21 -a 0 -x {1.0 0.0 7 ------- null}
+ -t 10.9627468566667 -s 3 -d 2 -p ack -e 40 -c 0 -i 21 -a 0 -x {1.0 0.0 7 ------- null}
- -t 10.9627468566667 -s 3 -d 2 -p ack -e 40 -c 0 -i 21 -a 0 -x {1.0 0.0 7 ------- null}
h -t 10.9627468566667 -s 3 -d 2 -p ack -e 40 -c 0 -i 21 -a 0 -x {1.0 0.0 -1 ------- null}
r -t 11.14608019 -s 3 -d 2 -p ack -e 40 -c 0 -i 21 -a 0 -x {1.0 0.0 7 ------- null}
+ -t 11.14608019 -s 2 -d 4 -p ack -e 40 -c 0 -i 21 -a 0 -x {1.0 0.0 7 ------- null}
- -t 11.14608019 -s 2 -d 4 -p ack -e 40 -c 0 -i 21 -a 0 -x {1.0 0.0 7 ------- null}
h -t 11.14608019 -s 2 -d 4 -p ack -e 40 -c 0 -i 21 -a 0 -x {1.0 0.0 -1 ------- null}
r -t 11.3294135233333 -s 2 -d 4 -p ack -e 40 -c 0 -i 21 -a 0 -x {1.0 0.0 7 ------- null}
+ -t 11.3294135233333 -s 4 -d 0 -p ack -e 40 -c 0 -i 21 -a 0 -x {1.0 0.0 7 ------- null}
- -t 11.3294135233333 -s 4 -d 0 -p ack -e 40 -c 0 -i 21 -a 0 -x {1.0 0.0 7 ------- null}