+ 0.8 0 4 tcp 40 ------- 0 0.0 1.0 0 0
- 0.8 0 4 tcp 40 ------- 0 0.0 1.0 0 0
r 0.800107 0 4 tcp 40 ------- 0 0.0 1.0 0 0
+ 0.800107 4 2 tcp 40 ------- 0 0.0 1.0 0 0
- 0.800107 4 2 tcp 40 ------- 0 0.0 1.0 0 0
r 0.98344 4 2 tcp 40 ------- 0 0.0 1.0 0 0
+ 0.98344 2 3 tcp 40 ------- 0 0.0 1.0 0 0
- 0.98344 2 3 tcp 40 ------- 0 0.0 1.0 0 0
r 1.166773 2 3 tcp 40 ------- 0 0.0 1.0 0 0
+ 1.166773 3 1 tcp 40 ------- 0 0.0 1.0 0 0
- 1.166773 3 1 tcp 40 ------- 0 0.0 1.0 0 0
r 1.16688 3 1 tcp 40 ------- 0 0.0 1.0 0 0
+ 1.16688 1 3 ack 40 ------- 0 1.0 0.0 0 1
- 1.16688 1 3 ack 40 ------- 0 1.0 0.0 0 1
r 1.166987 1 3 ack 40 ------- 0 1.0 0.0 0 1
+ 1.166987 3 2 ack 40 ------- 0 1.0 0.0 0 1
- 1.166987 3 2 ack 40 ------- 0 1.0 0.0 0 1
r 1.35032 3 2 ack 40 ------- 0 1.0 0.0 0 1
+ 1.35032 2 4 ack 40 ------- 0 1.0 0.0 0 1
- 1.35032 2 4 ack 40 ------- 0 1.0 0.0 0 1
r 1.533653 2 4 ack 40 ------- 0 1.0 0.0 0 1
+ 1.533653 4 0 ack 40 ------- 0 1.0 0.0 0 1
- 1.533653 4 0 ack 40 ------- 0 1.0 0.0 0 1
r 1.53376 4 0 ack 40 ------- 0 1.0 0.0 0 1
+ 1.53376 0 4 tcp 1040 ------- 0 0.0 1.0 1 2
- 1.53376 0 4 tcp 1040 ------- 0 0.0 1.0 1 2
+ 1.53376 0 4 tcp 1040 ------- 0 0.0 1.0 2 3
- 1.536533 0 4 tcp 1040 ------- 0 0.0 1.0 2 3
r 1.536534 0 4 tcp 1040 ------- 0 0.0 1.0 1 2
+ 1.536534 4 2 tcp 1040 ------- 0 0.0 1.0 1 2
- 1.536534 4 2 tcp 1040 ------- 0 0.0 1.0 1 2
r 1.539307 0 4 tcp 1040 ------- 0 0.0 1.0 2 3
+ 1.539307 4 2 tcp 1040 ------- 0 0.0 1.0 2 3
- 2.4032 4 2 tcp 1040 ------- 0 0.0 1.0 2 3
r 2.5532 4 2 tcp 1040 ------- 0 0.0 1.0 1 2
+ 2.5532 2 3 tcp 1040 ------- 0 0.0 1.0 1 2
- 2.5532 2 3 tcp 1040 ------- 0 0.0 1.0 1 2
r 3.419867 4 2 tcp 1040 ------- 0 0.0 1.0 2 3
+ 3.419867 2 3 tcp 1040 ------- 0 0.0 1.0 2 3
- 3.419867 2 3 tcp 1040 ------- 0 0.0 1.0 2 3
r 3.569867 2 3 tcp 1040 ------- 0 0.0 1.0 1 2
+ 3.569867 3 1 tcp 1040 ------- 0 0.0 1.0 1 2
- 3.569867 3 1 tcp 1040 ------- 0 0.0 1.0 1 2
r 3.57264 3 1 tcp 1040 ------- 0 0.0 1.0 1 2
+ 3.57264 1 3 ack 40 ------- 0 1.0 0.0 1 4
- 3.57264 1 3 ack 40 ------- 0 1.0 0.0 1 4
r 3.572747 1 3 ack 40 ------- 0 1.0 0.0 1 4
+ 3.572747 3 2 ack 40 ------- 0 1.0 0.0 1 4
- 3.572747 3 2 ack 40 ------- 0 1.0 0.0 1 4
+ 3.72376 0 4 tcp 1040 ---A--- 0 0.0 1.0 1 5
- 3.72376 0 4 tcp 1040 ---A--- 0 0.0 1.0 1 5
r 3.726534 0 4 tcp 1040 ---A--- 0 0.0 1.0 1 5
+ 3.726534 4 2 tcp 1040 ---A--- 0 0.0 1.0 1 5
- 3.726534 4 2 tcp 1040 ---A--- 0 0.0 1.0 1 5
r 3.75608 3 2 ack 40 ------- 0 1.0 0.0 1 4
+ 3.75608 2 4 ack 40 ------- 0 1.0 0.0 1 4
- 3.75608 2 4 ack 40 ------- 0 1.0 0.0 1 4
r 3.939414 2 4 ack 40 ------- 0 1.0 0.0 1 4
+ 3.939414 4 0 ack 40 ------- 0 1.0 0.0 1 4
- 3.939414 4 0 ack 40 ------- 0 1.0 0.0 1 4
r 3.93952 4 0 ack 40 ------- 0 1.0 0.0 1 4
+ 3.93952 0 4 tcp 1040 ------- 0 0.0 1.0 2 6
- 3.93952 0 4 tcp 1040 ------- 0 0.0 1.0 2 6
+ 3.93952 0 4 tcp 1040 ------- 0 0.0 1.0 3 7
- 3.942294 0 4 tcp 1040 ------- 0 0.0 1.0 3 7
r 3.942294 0 4 tcp 1040 ------- 0 0.0 1.0 2 6
+ 3.942294 4 2 tcp 1040 ------- 0 0.0 1.0 2 6
r 3.945067 0 4 tcp 1040 ------- 0 0.0 1.0 3 7
+ 3.945067 4 2 tcp 1040 ------- 0 0.0 1.0 3 7
r 4.436534 2 3 tcp 1040 ------- 0 0.0 1.0 2 3
+ 4.436534 3 1 tcp 1040 ------- 0 0.0 1.0 2 3
- 4.436534 3 1 tcp 1040 ------- 0 0.0 1.0 2 3
r 4.439307 3 1 tcp 1040 ------- 0 0.0 1.0 2 3
+ 4.439307 1 3 ack 40 ------- 0 1.0 0.0 2 8
- 4.439307 1 3 ack 40 ------- 0 1.0 0.0 2 8
r 4.439414 1 3 ack 40 ------- 0 1.0 0.0 2 8
+ 4.439414 3 2 ack 40 ------- 0 1.0 0.0 2 8
- 4.439414 3 2 ack 40 ------- 0 1.0 0.0 2 8
- 4.5932 4 2 tcp 1040 ------- 0 0.0 1.0 2 6
r 4.622747 3 2 ack 40 ------- 0 1.0 0.0 2 8
+ 4.622747 2 4 ack 40 ------- 0 1.0 0.0 2 8
- 4.622747 2 4 ack 40 ------- 0 1.0 0.0 2 8
r 4.7432 4 2 tcp 1040 ---A--- 0 0.0 1.0 1 5
+ 4.7432 2 3 tcp 1040 ---A--- 0 0.0 1.0 1 5
- 4.7432 2 3 tcp 1040 ---A--- 0 0.0 1.0 1 5
r 4.80608 2 4 ack 40 ------- 0 1.0 0.0 2 8
+ 4.80608 4 0 ack 40 ------- 0 1.0 0.0 2 8
- 4.80608 4 0 ack 40 ------- 0 1.0 0.0 2 8
r 4.806187 4 0 ack 40 ------- 0 1.0 0.0 2 8
+ 4.806187 0 4 tcp 1040 ------- 0 0.0 1.0 4 9
- 4.806187 0 4 tcp 1040 ------- 0 0.0 1.0 4 9
r 4.80896 0 4 tcp 1040 ------- 0 0.0 1.0 4 9
+ 4.80896 4 2 tcp 1040 ------- 0 0.0 1.0 4 9
- 5.459867 4 2 tcp 1040 ------- 0 0.0 1.0 3 7
r 5.609867 4 2 tcp 1040 ------- 0 0.0 1.0 2 6
+ 5.609867 2 3 tcp 1040 ------- 0 0.0 1.0 2 6
- 5.609867 2 3 tcp 1040 ------- 0 0.0 1.0 2 6
r 5.759867 2 3 tcp 1040 ---A--- 0 0.0 1.0 1 5
+ 5.759867 3 1 tcp 1040 ---A--- 0 0.0 1.0 1 5
- 5.759867 3 1 tcp 1040 ---A--- 0 0.0 1.0 1 5
r 5.76264 3 1 tcp 1040 ---A--- 0 0.0 1.0 1 5
+ 5.76264 1 3 ack 40 ------- 0 1.0 0.0 2 10
- 5.76264 1 3 ack 40 ------- 0 1.0 0.0 2 10
r 5.762747 1 3 ack 40 ------- 0 1.0 0.0 2 10
+ 5.762747 3 2 ack 40 ------- 0 1.0 0.0 2 10
- 5.762747 3 2 ack 40 ------- 0 1.0 0.0 2 10
r 5.94608 3 2 ack 40 ------- 0 1.0 0.0 2 10
+ 5.94608 2 4 ack 40 ------- 0 1.0 0.0 2 10
- 5.94608 2 4 ack 40 ------- 0 1.0 0.0 2 10
r 6.129414 2 4 ack 40 ------- 0 1.0 0.0 2 10
+ 6.129414 4 0 ack 40 ------- 0 1.0 0.0 2 10
- 6.129414 4 0 ack 40 ------- 0 1.0 0.0 2 10
r 6.12952 4 0 ack 40 ------- 0 1.0 0.0 2 10
+ 6.12952 0 4 tcp 1040 ------- 0 0.0 1.0 5 11
- 6.12952 0 4 tcp 1040 ------- 0 0.0 1.0 5 11
r 6.132294 0 4 tcp 1040 ------- 0 0.0 1.0 5 11
+ 6.132294 4 2 tcp 1040 ------- 0 0.0 1.0 5 11
- 6.326534 4 2 tcp 1040 ------- 0 0.0 1.0 4 9
r 6.476534 4 2 tcp 1040 ------- 0 0.0 1.0 3 7
+ 6.476534 2 3 tcp 1040 ------- 0 0.0 1.0 3 7
- 6.476534 2 3 tcp 1040 ------- 0 0.0 1.0 3 7
r 6.626534 2 3 tcp 1040 ------- 0 0.0 1.0 2 6
+ 6.626534 3 1 tcp 1040 ------- 0 0.0 1.0 2 6
- 6.626534 3 1 tcp 1040 ------- 0 0.0 1.0 2 6
r 6.629307 3 1 tcp 1040 ------- 0 0.0 1.0 2 6
+ 6.629307 1 3 ack 40 ------- 0 1.0 0.0 2 12
- 6.629307 1 3 ack 40 ------- 0 1.0 0.0 2 12
r 6.629414 1 3 ack 40 ------- 0 1.0 0.0 2 12
+ 6.629414 3 2 ack 40 ------- 0 1.0 0.0 2 12
- 6.629414 3 2 ack 40 ------- 0 1.0 0.0 2 12
r 6.812747 3 2 ack 40 ------- 0 1.0 0.0 2 12
+ 6.812747 2 4 ack 40 ------- 0 1.0 0.0 2 12
- 6.812747 2 4 ack 40 ------- 0 1.0 0.0 2 12
r 6.99608 2 4 ack 40 ------- 0 1.0 0.0 2 12
+ 6.99608 4 0 ack 40 ------- 0 1.0 0.0 2 12
- 6.99608 4 0 ack 40 ------- 0 1.0 0.0 2 12
r 6.996187 4 0 ack 40 ------- 0 1.0 0.0 2 12
+ 6.996187 0 4 tcp 1040 ------- 0 0.0 1.0 6 13
- 6.996187 0 4 tcp 1040 ------- 0 0.0 1.0 6 13
r 6.99896 0 4 tcp 1040 ------- 0 0.0 1.0 6 13
+ 6.99896 4 2 tcp 1040 ------- 0 0.0 1.0 6 13
- 7.1932 4 2 tcp 1040 ------- 0 0.0 1.0 5 11
r 7.3432 4 2 tcp 1040 ------- 0 0.0 1.0 4 9
+ 7.3432 2 3 tcp 1040 ------- 0 0.0 1.0 4 9
- 7.3432 2 3 tcp 1040 ------- 0 0.0 1.0 4 9
r 7.4932 2 3 tcp 1040 ------- 0 0.0 1.0 3 7
+ 7.4932 3 1 tcp 1040 ------- 0 0.0 1.0 3 7
- 7.4932 3 1 tcp 1040 ------- 0 0.0 1.0 3 7
r 7.495974 3 1 tcp 1040 ------- 0 0.0 1.0 3 7
+ 7.495974 1 3 ack 40 ------- 0 1.0 0.0 3 14
- 7.495974 1 3 ack 40 ------- 0 1.0 0.0 3 14
r 7.49608 1 3 ack 40 ------- 0 1.0 0.0 3 14
+ 7.49608 3 2 ack 40 ------- 0 1.0 0.0 3 14
- 7.49608 3 2 ack 40 ------- 0 1.0 0.0 3 14
r 7.679414 3 2 ack 40 ------- 0 1.0 0.0 3 14
+ 7.679414 2 4 ack 40 ------- 0 1.0 0.0 3 14
- 7.679414 2 4 ack 40 ------- 0 1.0 0.0 3 14
r 7.862747 2 4 ack 40 ------- 0 1.0 0.0 3 14
+ 7.862747 4 0 ack 40 ------- 0 1.0 0.0 3 14
- 7.862747 4 0 ack 40 ------- 0 1.0 0.0 3 14
r 7.862854 4 0 ack 40 ------- 0 1.0 0.0 3 14
- 8.059867 4 2 tcp 1040 ------- 0 0.0 1.0 6 13
r 8.209867 4 2 tcp 1040 ------- 0 0.0 1.0 5 11
+ 8.209867 2 3 tcp 1040 ------- 0 0.0 1.0 5 11
- 8.209867 2 3 tcp 1040 ------- 0 0.0 1.0 5 11
r 8.359867 2 3 tcp 1040 ------- 0 0.0 1.0 4 9
+ 8.359867 3 1 tcp 1040 ------- 0 0.0 1.0 4 9
- 8.359867 3 1 tcp 1040 ------- 0 0.0 1.0 4 9
r 8.36264 3 1 tcp 1040 ------- 0 0.0 1.0 4 9
+ 8.36264 1 3 ack 40 ------- 0 1.0 0.0 4 15
- 8.36264 1 3 ack 40 ------- 0 1.0 0.0 4 15
r 8.362747 1 3 ack 40 ------- 0 1.0 0.0 4 15
+ 8.362747 3 2 ack 40 ------- 0 1.0 0.0 4 15
- 8.362747 3 2 ack 40 ------- 0 1.0 0.0 4 15
r 8.54608 3 2 ack 40 ------- 0 1.0 0.0 4 15
+ 8.54608 2 4 ack 40 ------- 0 1.0 0.0 4 15
- 8.54608 2 4 ack 40 ------- 0 1.0 0.0 4 15
r 8.729414 2 4 ack 40 ------- 0 1.0 0.0 4 15
+ 8.729414 4 0 ack 40 ------- 0 1.0 0.0 4 15
- 8.729414 4 0 ack 40 ------- 0 1.0 0.0 4 15
r 8.72952 4 0 ack 40 ------- 0 1.0 0.0 4 15
+ 8.72952 0 4 tcp 1040 ------- 0 0.0 1.0 7 16
- 8.72952 0 4 tcp 1040 ------- 0 0.0 1.0 7 16
r 8.732294 0 4 tcp 1040 ------- 0 0.0 1.0 7 16
+ 8.732294 4 2 tcp 1040 ------- 0 0.0 1.0 7 16
- 8.926534 4 2 tcp 1040 ------- 0 0.0 1.0 7 16
r 9.076534 4 2 tcp 1040 ------- 0 0.0 1.0 6 13
+ 9.076534 2 3 tcp 1040 ------- 0 0.0 1.0 6 13
- 9.076534 2 3 tcp 1040 ------- 0 0.0 1.0 6 13
r 9.226534 2 3 tcp 1040 ------- 0 0.0 1.0 5 11
+ 9.226534 3 1 tcp 1040 ------- 0 0.0 1.0 5 11
- 9.226534 3 1 tcp 1040 ------- 0 0.0 1.0 5 11
r 9.229307 3 1 tcp 1040 ------- 0 0.0 1.0 5 11
+ 9.229307 1 3 ack 40 ------- 0 1.0 0.0 5 17
- 9.229307 1 3 ack 40 ------- 0 1.0 0.0 5 17
r 9.229414 1 3 ack 40 ------- 0 1.0 0.0 5 17
+ 9.229414 3 2 ack 40 ------- 0 1.0 0.0 5 17
- 9.229414 3 2 ack 40 ------- 0 1.0 0.0 5 17
r 9.412747 3 2 ack 40 ------- 0 1.0 0.0 5 17
+ 9.412747 2 4 ack 40 ------- 0 1.0 0.0 5 17
- 9.412747 2 4 ack 40 ------- 0 1.0 0.0 5 17
r 9.59608 2 4 ack 40 ------- 0 1.0 0.0 5 17
+ 9.59608 4 0 ack 40 ------- 0 1.0 0.0 5 17
- 9.59608 4 0 ack 40 ------- 0 1.0 0.0 5 17
r 9.596187 4 0 ack 40 ------- 0 1.0 0.0 5 17
+ 9.596187 0 4 tcp 1040 ------- 0 0.0 1.0 8 18
- 9.596187 0 4 tcp 1040 ------- 0 0.0 1.0 8 18
r 9.59896 0 4 tcp 1040 ------- 0 0.0 1.0 8 18
+ 9.59896 4 2 tcp 1040 ------- 0 0.0 1.0 8 18
- 9.7932 4 2 tcp 1040 ------- 0 0.0 1.0 8 18
r 9.9432 4 2 tcp 1040 ------- 0 0.0 1.0 7 16
+ 9.9432 2 3 tcp 1040 ------- 0 0.0 1.0 7 16
- 9.9432 2 3 tcp 1040 ------- 0 0.0 1.0 7 16
r 10.0932 2 3 tcp 1040 ------- 0 0.0 1.0 6 13
+ 10.0932 3 1 tcp 1040 ------- 0 0.0 1.0 6 13
- 10.0932 3 1 tcp 1040 ------- 0 0.0 1.0 6 13
r 10.095974 3 1 tcp 1040 ------- 0 0.0 1.0 6 13
+ 10.095974 1 3 ack 40 ------- 0 1.0 0.0 6 19
- 10.095974 1 3 ack 40 ------- 0 1.0 0.0 6 19
r 10.09608 1 3 ack 40 ------- 0 1.0 0.0 6 19
+ 10.09608 3 2 ack 40 ------- 0 1.0 0.0 6 19
- 10.09608 3 2 ack 40 ------- 0 1.0 0.0 6 19
r 10.279414 3 2 ack 40 ------- 0 1.0 0.0 6 19
+ 10.279414 2 4 ack 40 ------- 0 1.0 0.0 6 19
- 10.279414 2 4 ack 40 ------- 0 1.0 0.0 6 19
r 10.462747 2 4 ack 40 ------- 0 1.0 0.0 6 19
+ 10.462747 4 0 ack 40 ------- 0 1.0 0.0 6 19
- 10.462747 4 0 ack 40 ------- 0 1.0 0.0 6 19
r 10.462854 4 0 ack 40 ------- 0 1.0 0.0 6 19
+ 10.462854 0 4 tcp 1040 ------- 0 0.0 1.0 9 20
- 10.462854 0 4 tcp 1040 ------- 0 0.0 1.0 9 20
r 10.465627 0 4 tcp 1040 ------- 0 0.0 1.0 9 20
+ 10.465627 4 2 tcp 1040 ------- 0 0.0 1.0 9 20
- 10.659867 4 2 tcp 1040 ------- 0 0.0 1.0 9 20
r 10.809867 4 2 tcp 1040 ------- 0 0.0 1.0 8 18
+ 10.809867 2 3 tcp 1040 ------- 0 0.0 1.0 8 18
- 10.809867 2 3 tcp 1040 ------- 0 0.0 1.0 8 18
r 10.959867 2 3 tcp 1040 ------- 0 0.0 1.0 7 16
+ 10.959867 3 1 tcp 1040 ------- 0 0.0 1.0 7 16
- 10.959867 3 1 tcp 1040 ------- 0 0.0 1.0 7 16
r 10.96264 3 1 tcp 1040 ------- 0 0.0 1.0 7 16
+ 10.96264 1 3 ack 40 ------- 0 1.0 0.0 7 21
- 10.96264 1 3 ack 40 ------- 0 1.0 0.0 7 21
r 10.962747 1 3 ack 40 ------- 0 1.0 0.0 7 21
+ 10.962747 3 2 ack 40 ------- 0 1.0 0.0 7 21
- 10.962747 3 2 ack 40 ------- 0 1.0 0.0 7 21
r 11.14608 3 2 ack 40 ------- 0 1.0 0.0 7 21
+ 11.14608 2 4 ack 40 ------- 0 1.0 0.0 7 21
- 11.14608 2 4 ack 40 ------- 0 1.0 0.0 7 21
r 11.329414 2 4 ack 40 ------- 0 1.0 0.0 7 21
+ 11.329414 4 0 ack 40 ------- 0 1.0 0.0 7 21
- 11.329414 4 0 ack 40 ------- 0 1.0 0.0 7 21
r 11.32952 4 0 ack 40 ------- 0 1.0 0.0 7 21
+ 11.32952 0 4 tcp 1040 ------- 0 0.0 1.0 10 22
- 11.32952 0 4 tcp 1040 ------- 0 0.0 1.0 10 22
+ 11.32952 0 4 tcp 1040 ------- 0 0.0 1.0 11 23
- 11.332294 0 4 tcp 1040 ------- 0 0.0 1.0 11 23
r 11.332294 0 4 tcp 1040 ------- 0 0.0 1.0 10 22
+ 11.332294 4 2 tcp 1040 ------- 0 0.0 1.0 10 22
r 11.335067 0 4 tcp 1040 ------- 0 0.0 1.0 11 23
+ 11.335067 4 2 tcp 1040 ------- 0 0.0 1.0 11 23
- 11.526534 4 2 tcp 1040 ------- 0 0.0 1.0 10 22
r 11.676534 4 2 tcp 1040 ------- 0 0.0 1.0 9 20
+ 11.676534 2 3 tcp 1040 ------- 0 0.0 1.0 9 20
- 11.676534 2 3 tcp 1040 ------- 0 0.0 1.0 9 20
r 11.826534 2 3 tcp 1040 ------- 0 0.0 1.0 8 18
+ 11.826534 3 1 tcp 1040 ------- 0 0.0 1.0 8 18
- 11.826534 3 1 tcp 1040 ------- 0 0.0 1.0 8 18
r 11.829307 3 1 tcp 1040 ------- 0 0.0 1.0 8 18
+ 11.829307 1 3 ack 40 ------- 0 1.0 0.0 8 24
- 11.829307 1 3 ack 40 ------- 0 1.0 0.0 8 24
r 11.829414 1 3 ack 40 ------- 0 1.0 0.0 8 24
+ 11.829414 3 2 ack 40 ------- 0 1.0 0.0 8 24
- 11.829414 3 2 ack 40 ------- 0 1.0 0.0 8 24
r 12.012747 3 2 ack 40 ------- 0 1.0 0.0 8 24
+ 12.012747 2 4 ack 40 ------- 0 1.0 0.0 8 24
- 12.012747 2 4 ack 40 ------- 0 1.0 0.0 8 24
r 12.19608 2 4 ack 40 ------- 0 1.0 0.0 8 24
+ 12.19608 4 0 ack 40 ------- 0 1.0 0.0 8 24
- 12.19608 4 0 ack 40 ------- 0 1.0 0.0 8 24
r 12.196187 4 0 ack 40 ------- 0 1.0 0.0 8 24
+ 12.196187 0 4 tcp 1040 ------- 0 0.0 1.0 12 25
- 12.196187 0 4 tcp 1040 ------- 0 0.0 1.0 12 25
r 12.19896 0 4 tcp 1040 ------- 0 0.0 1.0 12 25
+ 12.19896 4 2 tcp 1040 ------- 0 0.0 1.0 12 25
- 12.3932 4 2 tcp 1040 ------- 0 0.0 1.0 11 23
r 12.5432 4 2 tcp 1040 ------- 0 0.0 1.0 10 22
+ 12.5432 2 3 tcp 1040 ------- 0 0.0 1.0 10 22
- 12.5432 2 3 tcp 1040 ------- 0 0.0 1.0 10 22
r 12.6932 2 3 tcp 1040 ------- 0 0.0 1.0 9 20
+ 12.6932 3 1 tcp 1040 ------- 0 0.0 1.0 9 20
- 12.6932 3 1 tcp 1040 ------- 0 0.0 1.0 9 20
r 12.695974 3 1 tcp 1040 ------- 0 0.0 1.0 9 20
+ 12.695974 1 3 ack 40 ------- 0 1.0 0.0 9 26
- 12.695974 1 3 ack 40 ------- 0 1.0 0.0 9 26
r 12.69608 1 3 ack 40 ------- 0 1.0 0.0 9 26
+ 12.69608 3 2 ack 40 ------- 0 1.0 0.0 9 26
- 12.69608 3 2 ack 40 ------- 0 1.0 0.0 9 26
r 12.879414 3 2 ack 40 ------- 0 1.0 0.0 9 26
+ 12.879414 2 4 ack 40 ------- 0 1.0 0.0 9 26
- 12.879414 2 4 ack 40 ------- 0 1.0 0.0 9 26
r 13.062747 2 4 ack 40 ------- 0 1.0 0.0 9 26
+ 13.062747 4 0 ack 40 ------- 0 1.0 0.0 9 26
- 13.062747 4 0 ack 40 ------- 0 1.0 0.0 9 26
r 13.062854 4 0 ack 40 ------- 0 1.0 0.0 9 26
+ 13.062854 0 4 tcp 1040 ------- 0 0.0 1.0 13 27
- 13.062854 0 4 tcp 1040 ------- 0 0.0 1.0 13 27
r 13.065627 0 4 tcp 1040 ------- 0 0.0 1.0 13 27
+ 13.065627 4 2 tcp 1040 ------- 0 0.0 1.0 13 27
- 13.259867 4 2 tcp 1040 ------- 0 0.0 1.0 12 25
r 13.409867 4 2 tcp 1040 ------- 0 0.0 1.0 11 23
+ 13.409867 2 3 tcp 1040 ------- 0 0.0 1.0 11 23
- 13.409867 2 3 tcp 1040 ------- 0 0.0 1.0 11 23
r 13.559867 2 3 tcp 1040 ------- 0 0.0 1.0 10 22
+ 13.559867 3 1 tcp 1040 ------- 0 0.0 1.0 10 22
- 13.559867 3 1 tcp 1040 ------- 0 0.0 1.0 10 22
r 13.56264 3 1 tcp 1040 ------- 0 0.0 1.0 10 22
+ 13.56264 1 3 ack 40 ------- 0 1.0 0.0 10 28
- 13.56264 1 3 ack 40 ------- 0 1.0 0.0 10 28
r 13.562747 1 3 ack 40 ------- 0 1.0 0.0 10 28
+ 13.562747 3 2 ack 40 ------- 0 1.0 0.0 10 28
- 13.562747 3 2 ack 40 ------- 0 1.0 0.0 10 28
r 13.74608 3 2 ack 40 ------- 0 1.0 0.0 10 28
+ 13.74608 2 4 ack 40 ------- 0 1.0 0.0 10 28
- 13.74608 2 4 ack 40 ------- 0 1.0 0.0 10 28
r 13.929414 2 4 ack 40 ------- 0 1.0 0.0 10 28
+ 13.929414 4 0 ack 40 ------- 0 1.0 0.0 10 28
- 13.929414 4 0 ack 40 ------- 0 1.0 0.0 10 28
r 13.92952 4 0 ack 40 ------- 0 1.0 0.0 10 28
+ 13.92952 0 4 tcp 1040 ------- 0 0.0 1.0 14 29
- 13.92952 0 4 tcp 1040 ------- 0 0.0 1.0 14 29
r 13.932294 0 4 tcp 1040 ------- 0 0.0 1.0 14 29
+ 13.932294 4 2 tcp 1040 ------- 0 0.0 1.0 14 29
- 14.126534 4 2 tcp 1040 ------- 0 0.0 1.0 13 27
r 14.276534 4 2 tcp 1040 ------- 0 0.0 1.0 12 25
+ 14.276534 2 3 tcp 1040 ------- 0 0.0 1.0 12 25
- 14.276534 2 3 tcp 1040 ------- 0 0.0 1.0 12 25
r 14.426534 2 3 tcp 1040 ------- 0 0.0 1.0 11 23
+ 14.426534 3 1 tcp 1040 ------- 0 0.0 1.0 11 23
- 14.426534 3 1 tcp 1040 ------- 0 0.0 1.0 11 23
r 14.429307 3 1 tcp 1040 ------- 0 0.0 1.0 11 23
+ 14.429307 1 3 ack 40 ------- 0 1.0 0.0 11 30
- 14.429307 1 3 ack 40 ------- 0 1.0 0.0 11 30
r 14.429414 1 3 ack 40 ------- 0 1.0 0.0 11 30
+ 14.429414 3 2 ack 40 ------- 0 1.0 0.0 11 30
- 14.429414 3 2 ack 40 ------- 0 1.0 0.0 11 30
r 14.612747 3 2 ack 40 ------- 0 1.0 0.0 11 30
+ 14.612747 2 4 ack 40 ------- 0 1.0 0.0 11 30
- 14.612747 2 4 ack 40 ------- 0 1.0 0.0 11 30
r 14.79608 2 4 ack 40 ------- 0 1.0 0.0 11 30
+ 14.79608 4 0 ack 40 ------- 0 1.0 0.0 11 30
- 14.79608 4 0 ack 40 ------- 0 1.0 0.0 11 30
r 14.796187 4 0 ack 40 ------- 0 1.0 0.0 11 30
+ 14.796187 0 4 tcp 1040 ------- 0 0.0 1.0 15 31
- 14.796187 0 4 tcp 1040 ------- 0 0.0 1.0 15 31
r 14.79896 0 4 tcp 1040 ------- 0 0.0 1.0 15 31
+ 14.79896 4 2 tcp 1040 ------- 0 0.0 1.0 15 31
- 14.9932 4 2 tcp 1040 ------- 0 0.0 1.0 14 29
r 15.1432 4 2 tcp 1040 ------- 0 0.0 1.0 13 27
+ 15.1432 2 3 tcp 1040 ------- 0 0.0 1.0 13 27
- 15.1432 2 3 tcp 1040 ------- 0 0.0 1.0 13 27
r 15.2932 2 3 tcp 1040 ------- 0 0.0 1.0 12 25
+ 15.2932 3 1 tcp 1040 ------- 0 0.0 1.0 12 25
- 15.2932 3 1 tcp 1040 ------- 0 0.0 1.0 12 25
r 15.295974 3 1 tcp 1040 ------- 0 0.0 1.0 12 25
+ 15.295974 1 3 ack 40 ------- 0 1.0 0.0 12 32
- 15.295974 1 3 ack 40 ------- 0 1.0 0.0 12 32
r 15.29608 1 3 ack 40 ------- 0 1.0 0.0 12 32
+ 15.29608 3 2 ack 40 ------- 0 1.0 0.0 12 32
- 15.29608 3 2 ack 40 ------- 0 1.0 0.0 12 32
r 15.479414 3 2 ack 40 ------- 0 1.0 0.0 12 32
+ 15.479414 2 4 ack 40 ------- 0 1.0 0.0 12 32
- 15.479414 2 4 ack 40 ------- 0 1.0 0.0 12 32
r 15.662747 2 4 ack 40 ------- 0 1.0 0.0 12 32
+ 15.662747 4 0 ack 40 ------- 0 1.0 0.0 12 32
- 15.662747 4 0 ack 40 ------- 0 1.0 0.0 12 32
r 15.662854 4 0 ack 40 ------- 0 1.0 0.0 12 32
+ 15.662854 0 4 tcp 1040 ------- 0 0.0 1.0 16 33
- 15.662854 0 4 tcp 1040 ------- 0 0.0 1.0 16 33
+ 15.662854 0 4 tcp 1040 ------- 0 0.0 1.0 17 34
- 15.665627 0 4 tcp 1040 ------- 0 0.0 1.0 17 34
r 15.665627 0 4 tcp 1040 ------- 0 0.0 1.0 16 33
+ 15.665627 4 2 tcp 1040 ------- 0 0.0 1.0 16 33
r 15.6684 0 4 tcp 1040 ------- 0 0.0 1.0 17 34
+ 15.6684 4 2 tcp 1040 ------- 0 0.0 1.0 17 34
- 15.859867 4 2 tcp 1040 ------- 0 0.0 1.0 15 31
r 16.009867 4 2 tcp 1040 ------- 0 0.0 1.0 14 29
+ 16.009867 2 3 tcp 1040 ------- 0 0.0 1.0 14 29
- 16.009867 2 3 tcp 1040 ------- 0 0.0 1.0 14 29
r 16.159867 2 3 tcp 1040 ------- 0 0.0 1.0 13 27
+ 16.159867 3 1 tcp 1040 ------- 0 0.0 1.0 13 27
- 16.159867 3 1 tcp 1040 ------- 0 0.0 1.0 13 27
r 16.16264 3 1 tcp 1040 ------- 0 0.0 1.0 13 27
+ 16.16264 1 3 ack 40 ------- 0 1.0 0.0 13 35
- 16.16264 1 3 ack 40 ------- 0 1.0 0.0 13 35
r 16.162747 1 3 ack 40 ------- 0 1.0 0.0 13 35
+ 16.162747 3 2 ack 40 ------- 0 1.0 0.0 13 35
- 16.162747 3 2 ack 40 ------- 0 1.0 0.0 13 35
r 16.34608 3 2 ack 40 ------- 0 1.0 0.0 13 35
+ 16.34608 2 4 ack 40 ------- 0 1.0 0.0 13 35
- 16.34608 2 4 ack 40 ------- 0 1.0 0.0 13 35
r 16.529414 2 4 ack 40 ------- 0 1.0 0.0 13 35
+ 16.529414 4 0 ack 40 ------- 0 1.0 0.0 13 35
- 16.529414 4 0 ack 40 ------- 0 1.0 0.0 13 35
r 16.52952 4 0 ack 40 ------- 0 1.0 0.0 13 35
+ 16.52952 0 4 tcp 1040 ------- 0 0.0 1.0 18 36
- 16.52952 0 4 tcp 1040 ------- 0 0.0 1.0 18 36
r 16.532294 0 4 tcp 1040 ------- 0 0.0 1.0 18 36
+ 16.532294 4 2 tcp 1040 ------- 0 0.0 1.0 18 36
- 16.726534 4 2 tcp 1040 ------- 0 0.0 1.0 16 33
r 16.876534 4 2 tcp 1040 ------- 0 0.0 1.0 15 31
+ 16.876534 2 3 tcp 1040 ------- 0 0.0 1.0 15 31
- 16.876534 2 3 tcp 1040 ------- 0 0.0 1.0 15 31
r 17.026534 2 3 tcp 1040 ------- 0 0.0 1.0 14 29
+ 17.026534 3 1 tcp 1040 ------- 0 0.0 1.0 14 29
- 17.026534 3 1 tcp 1040 ------- 0 0.0 1.0 14 29
r 17.029307 3 1 tcp 1040 ------- 0 0.0 1.0 14 29
+ 17.029307 1 3 ack 40 ------- 0 1.0 0.0 14 37
- 17.029307 1 3 ack 40 ------- 0 1.0 0.0 14 37
r 17.029414 1 3 ack 40 ------- 0 1.0 0.0 14 37
+ 17.029414 3 2 ack 40 ------- 0 1.0 0.0 14 37
- 17.029414 3 2 ack 40 ------- 0 1.0 0.0 14 37
r 17.212747 3 2 ack 40 ------- 0 1.0 0.0 14 37
+ 17.212747 2 4 ack 40 ------- 0 1.0 0.0 14 37
- 17.212747 2 4 ack 40 ------- 0 1.0 0.0 14 37
r 17.39608 2 4 ack 40 ------- 0 1.0 0.0 14 37
+ 17.39608 4 0 ack 40 ------- 0 1.0 0.0 14 37
- 17.39608 4 0 ack 40 ------- 0 1.0 0.0 14 37
r 17.396187 4 0 ack 40 ------- 0 1.0 0.0 14 37
+ 17.396187 0 4 tcp 1040 ------- 0 0.0 1.0 19 38
- 17.396187 0 4 tcp 1040 ------- 0 0.0 1.0 19 38
r 17.39896 0 4 tcp 1040 ------- 0 0.0 1.0 19 38
+ 17.39896 4 2 tcp 1040 ------- 0 0.0 1.0 19 38
- 17.5932 4 2 tcp 1040 ------- 0 0.0 1.0 17 34
r 17.7432 4 2 tcp 1040 ------- 0 0.0 1.0 16 33
+ 17.7432 2 3 tcp 1040 ------- 0 0.0 1.0 16 33
- 17.7432 2 3 tcp 1040 ------- 0 0.0 1.0 16 33
r 17.8932 2 3 tcp 1040 ------- 0 0.0 1.0 15 31
+ 17.8932 3 1 tcp 1040 ------- 0 0.0 1.0 15 31
- 17.8932 3 1 tcp 1040 ------- 0 0.0 1.0 15 31
r 17.895974 3 1 tcp 1040 ------- 0 0.0 1.0 15 31
+ 17.895974 1 3 ack 40 ------- 0 1.0 0.0 15 39
- 17.895974 1 3 ack 40 ------- 0 1.0 0.0 15 39
r 17.89608 1 3 ack 40 ------- 0 1.0 0.0 15 39
+ 17.89608 3 2 ack 40 ------- 0 1.0 0.0 15 39
- 17.89608 3 2 ack 40 ------- 0 1.0 0.0 15 39
r 18.079414 3 2 ack 40 ------- 0 1.0 0.0 15 39
+ 18.079414 2 4 ack 40 ------- 0 1.0 0.0 15 39
- 18.079414 2 4 ack 40 ------- 0 1.0 0.0 15 39
r 18.262747 2 4 ack 40 ------- 0 1.0 0.0 15 39
+ 18.262747 4 0 ack 40 ------- 0 1.0 0.0 15 39
- 18.262747 4 0 ack 40 ------- 0 1.0 0.0 15 39
r 18.262854 4 0 ack 40 ------- 0 1.0 0.0 15 39
+ 18.262854 0 4 tcp 1040 ------- 0 0.0 1.0 20 40
- 18.262854 0 4 tcp 1040 ------- 0 0.0 1.0 20 40
r 18.265627 0 4 tcp 1040 ------- 0 0.0 1.0 20 40
+ 18.265627 4 2 tcp 1040 ------- 0 0.0 1.0 20 40
- 18.459867 4 2 tcp 1040 ------- 0 0.0 1.0 18 36
r 18.609867 4 2 tcp 1040 ------- 0 0.0 1.0 17 34
+ 18.609867 2 3 tcp 1040 ------- 0 0.0 1.0 17 34
- 18.609867 2 3 tcp 1040 ------- 0 0.0 1.0 17 34
r 18.759867 2 3 tcp 1040 ------- 0 0.0 1.0 16 33
+ 18.759867 3 1 tcp 1040 ------- 0 0.0 1.0 16 33
- 18.759867 3 1 tcp 1040 ------- 0 0.0 1.0 16 33
r 18.76264 3 1 tcp 1040 ------- 0 0.0 1.0 16 33
+ 18.76264 1 3 ack 40 ------- 0 1.0 0.0 16 41
- 18.76264 1 3 ack 40 ------- 0 1.0 0.0 16 41
r 18.762747 1 3 ack 40 ------- 0 1.0 0.0 16 41
+ 18.762747 3 2 ack 40 ------- 0 1.0 0.0 16 41
- 18.762747 3 2 ack 40 ------- 0 1.0 0.0 16 41
r 18.94608 3 2 ack 40 ------- 0 1.0 0.0 16 41
+ 18.94608 2 4 ack 40 ------- 0 1.0 0.0 16 41
- 18.94608 2 4 ack 40 ------- 0 1.0 0.0 16 41
r 19.129414 2 4 ack 40 ------- 0 1.0 0.0 16 41
+ 19.129414 4 0 ack 40 ------- 0 1.0 0.0 16 41
- 19.129414 4 0 ack 40 ------- 0 1.0 0.0 16 41
r 19.12952 4 0 ack 40 ------- 0 1.0 0.0 16 41
+ 19.12952 0 4 tcp 1040 ------- 0 0.0 1.0 21 42
- 19.12952 0 4 tcp 1040 ------- 0 0.0 1.0 21 42
r 19.132294 0 4 tcp 1040 ------- 0 0.0 1.0 21 42
+ 19.132294 4 2 tcp 1040 ------- 0 0.0 1.0 21 42
- 19.326534 4 2 tcp 1040 ------- 0 0.0 1.0 19 38
r 19.476534 4 2 tcp 1040 ------- 0 0.0 1.0 18 36
+ 19.476534 2 3 tcp 1040 ------- 0 0.0 1.0 18 36
- 19.476534 2 3 tcp 1040 ------- 0 0.0 1.0 18 36
r 19.626534 2 3 tcp 1040 ------- 0 0.0 1.0 17 34
+ 19.626534 3 1 tcp 1040 ------- 0 0.0 1.0 17 34
- 19.626534 3 1 tcp 1040 ------- 0 0.0 1.0 17 34
r 19.629307 3 1 tcp 1040 ------- 0 0.0 1.0 17 34
+ 19.629307 1 3 ack 40 ------- 0 1.0 0.0 17 43
- 19.629307 1 3 ack 40 ------- 0 1.0 0.0 17 43
r 19.629414 1 3 ack 40 ------- 0 1.0 0.0 17 43
+ 19.629414 3 2 ack 40 ------- 0 1.0 0.0 17 43
- 19.629414 3 2 ack 40 ------- 0 1.0 0.0 17 43
r 19.812747 3 2 ack 40 ------- 0 1.0 0.0 17 43
+ 19.812747 2 4 ack 40 ------- 0 1.0 0.0 17 43
- 19.812747 2 4 ack 40 ------- 0 1.0 0.0 17 43
r 19.99608 2 4 ack 40 ------- 0 1.0 0.0 17 43
+ 19.99608 4 0 ack 40 ------- 0 1.0 0.0 17 43
- 19.99608 4 0 ack 40 ------- 0 1.0 0.0 17 43
r 19.996187 4 0 ack 40 ------- 0 1.0 0.0 17 43
+ 19.996187 0 4 tcp 1040 ------- 0 0.0 1.0 22 44
- 19.996187 0 4 tcp 1040 ------- 0 0.0 1.0 22 44
+ 19.996187 0 4 tcp 1040 ------- 0 0.0 1.0 23 45
- 19.99896 0 4 tcp 1040 ------- 0 0.0 1.0 23 45
r 19.99896 0 4 tcp 1040 ------- 0 0.0 1.0 22 44
+ 19.99896 4 2 tcp 1040 ------- 0 0.0 1.0 22 44
r 20.001734 0 4 tcp 1040 ------- 0 0.0 1.0 23 45
+ 20.001734 4 2 tcp 1040 ------- 0 0.0 1.0 23 45
- 20.1932 4 2 tcp 1040 ------- 0 0.0 1.0 20 40
r 20.3432 4 2 tcp 1040 ------- 0 0.0 1.0 19 38
+ 20.3432 2 3 tcp 1040 ------- 0 0.0 1.0 19 38
- 20.3432 2 3 tcp 1040 ------- 0 0.0 1.0 19 38
r 20.4932 2 3 tcp 1040 ------- 0 0.0 1.0 18 36
+ 20.4932 3 1 tcp 1040 ------- 0 0.0 1.0 18 36
- 20.4932 3 1 tcp 1040 ------- 0 0.0 1.0 18 36
r 20.495974 3 1 tcp 1040 ------- 0 0.0 1.0 18 36
+ 20.495974 1 3 ack 40 ------- 0 1.0 0.0 18 46
- 20.495974 1 3 ack 40 ------- 0 1.0 0.0 18 46
r 20.49608 1 3 ack 40 ------- 0 1.0 0.0 18 46
+ 20.49608 3 2 ack 40 ------- 0 1.0 0.0 18 46
- 20.49608 3 2 ack 40 ------- 0 1.0 0.0 18 46
r 20.679414 3 2 ack 40 ------- 0 1.0 0.0 18 46
+ 20.679414 2 4 ack 40 ------- 0 1.0 0.0 18 46
- 20.679414 2 4 ack 40 ------- 0 1.0 0.0 18 46
r 20.862747 2 4 ack 40 ------- 0 1.0 0.0 18 46
+ 20.862747 4 0 ack 40 ------- 0 1.0 0.0 18 46
- 20.862747 4 0 ack 40 ------- 0 1.0 0.0 18 46
r 20.862854 4 0 ack 40 ------- 0 1.0 0.0 18 46
+ 20.862854 0 4 tcp 1040 ------- 0 0.0 1.0 24 47
- 20.862854 0 4 tcp 1040 ------- 0 0.0 1.0 24 47
r 20.865627 0 4 tcp 1040 ------- 0 0.0 1.0 24 47
+ 20.865627 4 2 tcp 1040 ------- 0 0.0 1.0 24 47
- 21.059867 4 2 tcp 1040 ------- 0 0.0 1.0 21 42
r 21.209867 4 2 tcp 1040 ------- 0 0.0 1.0 20 40
+ 21.209867 2 3 tcp 1040 ------- 0 0.0 1.0 20 40
- 21.209867 2 3 tcp 1040 ------- 0 0.0 1.0 20 40
r 21.359867 2 3 tcp 1040 ------- 0 0.0 1.0 19 38
+ 21.359867 3 1 tcp 1040 ------- 0 0.0 1.0 19 38
- 21.359867 3 1 tcp 1040 ------- 0 0.0 1.0 19 38
r 21.36264 3 1 tcp 1040 ------- 0 0.0 1.0 19 38
+ 21.36264 1 3 ack 40 ------- 0 1.0 0.0 19 48
- 21.36264 1 3 ack 40 ------- 0 1.0 0.0 19 48
r 21.362747 1 3 ack 40 ------- 0 1.0 0.0 19 48
+ 21.362747 3 2 ack 40 ------- 0 1.0 0.0 19 48
- 21.362747 3 2 ack 40 ------- 0 1.0 0.0 19 48
r 21.54608 3 2 ack 40 ------- 0 1.0 0.0 19 48
+ 21.54608 2 4 ack 40 ------- 0 1.0 0.0 19 48
- 21.54608 2 4 ack 40 ------- 0 1.0 0.0 19 48
r 21.729414 2 4 ack 40 ------- 0 1.0 0.0 19 48
+ 21.729414 4 0 ack 40 ------- 0 1.0 0.0 19 48
- 21.729414 4 0 ack 40 ------- 0 1.0 0.0 19 48
r 21.72952 4 0 ack 40 ------- 0 1.0 0.0 19 48
+ 21.72952 0 4 tcp 1040 ------- 0 0.0 1.0 25 49
- 21.72952 0 4 tcp 1040 ------- 0 0.0 1.0 25 49
r 21.732294 0 4 tcp 1040 ------- 0 0.0 1.0 25 49
+ 21.732294 4 2 tcp 1040 ------- 0 0.0 1.0 25 49
- 21.926534 4 2 tcp 1040 ------- 0 0.0 1.0 22 44
r 22.076534 4 2 tcp 1040 ------- 0 0.0 1.0 21 42
+ 22.076534 2 3 tcp 1040 ------- 0 0.0 1.0 21 42
- 22.076534 2 3 tcp 1040 ------- 0 0.0 1.0 21 42
r 22.226534 2 3 tcp 1040 ------- 0 0.0 1.0 20 40
+ 22.226534 3 1 tcp 1040 ------- 0 0.0 1.0 20 40
- 22.226534 3 1 tcp 1040 ------- 0 0.0 1.0 20 40
r 22.229307 3 1 tcp 1040 ------- 0 0.0 1.0 20 40
+ 22.229307 1 3 ack 40 ------- 0 1.0 0.0 20 50
- 22.229307 1 3 ack 40 ------- 0 1.0 0.0 20 50
r 22.229414 1 3 ack 40 ------- 0 1.0 0.0 20 50
+ 22.229414 3 2 ack 40 ------- 0 1.0 0.0 20 50
- 22.229414 3 2 ack 40 ------- 0 1.0 0.0 20 50
r 22.412747 3 2 ack 40 ------- 0 1.0 0.0 20 50
+ 22.412747 2 4 ack 40 ------- 0 1.0 0.0 20 50
- 22.412747 2 4 ack 40 ------- 0 1.0 0.0 20 50
r 22.59608 2 4 ack 40 ------- 0 1.0 0.0 20 50
+ 22.59608 4 0 ack 40 ------- 0 1.0 0.0 20 50
- 22.59608 4 0 ack 40 ------- 0 1.0 0.0 20 50
r 22.596187 4 0 ack 40 ------- 0 1.0 0.0 20 50
+ 22.596187 0 4 tcp 1040 ------- 0 0.0 1.0 26 51
- 22.596187 0 4 tcp 1040 ------- 0 0.0 1.0 26 51
r 22.59896 0 4 tcp 1040 ------- 0 0.0 1.0 26 51
+ 22.59896 4 2 tcp 1040 ------- 0 0.0 1.0 26 51
- 22.7932 4 2 tcp 1040 ------- 0 0.0 1.0 23 45
r 22.9432 4 2 tcp 1040 ------- 0 0.0 1.0 22 44
+ 22.9432 2 3 tcp 1040 ------- 0 0.0 1.0 22 44
- 22.9432 2 3 tcp 1040 ------- 0 0.0 1.0 22 44
r 23.0932 2 3 tcp 1040 ------- 0 0.0 1.0 21 42
+ 23.0932 3 1 tcp 1040 ------- 0 0.0 1.0 21 42
- 23.0932 3 1 tcp 1040 ------- 0 0.0 1.0 21 42
r 23.095974 3 1 tcp 1040 ------- 0 0.0 1.0 21 42
+ 23.095974 1 3 ack 40 ------- 0 1.0 0.0 21 52
- 23.095974 1 3 ack 40 ------- 0 1.0 0.0 21 52
r 23.09608 1 3 ack 40 ------- 0 1.0 0.0 21 52
+ 23.09608 3 2 ack 40 ------- 0 1.0 0.0 21 52
- 23.09608 3 2 ack 40 ------- 0 1.0 0.0 21 52
r 23.279414 3 2 ack 40 ------- 0 1.0 0.0 21 52
+ 23.279414 2 4 ack 40 ------- 0 1.0 0.0 21 52
- 23.279414 2 4 ack 40 ------- 0 1.0 0.0 21 52
r 23.462747 2 4 ack 40 ------- 0 1.0 0.0 21 52
+ 23.462747 4 0 ack 40 ------- 0 1.0 0.0 21 52
- 23.462747 4 0 ack 40 ------- 0 1.0 0.0 21 52
r 23.462854 4 0 ack 40 ------- 0 1.0 0.0 21 52
+ 23.462854 0 4 tcp 1040 ------- 0 0.0 1.0 27 53
- 23.462854 0 4 tcp 1040 ------- 0 0.0 1.0 27 53
r 23.465627 0 4 tcp 1040 ------- 0 0.0 1.0 27 53
+ 23.465627 4 2 tcp 1040 ------- 0 0.0 1.0 27 53
- 23.659867 4 2 tcp 1040 ------- 0 0.0 1.0 24 47
r 23.809867 4 2 tcp 1040 ------- 0 0.0 1.0 23 45
+ 23.809867 2 3 tcp 1040 ------- 0 0.0 1.0 23 45
- 23.809867 2 3 tcp 1040 ------- 0 0.0 1.0 23 45
r 23.959867 2 3 tcp 1040 ------- 0 0.0 1.0 22 44
+ 23.959867 3 1 tcp 1040 ------- 0 0.0 1.0 22 44
- 23.959867 3 1 tcp 1040 ------- 0 0.0 1.0 22 44
r 23.96264 3 1 tcp 1040 ------- 0 0.0 1.0 22 44
+ 23.96264 1 3 ack 40 ------- 0 1.0 0.0 22 54
- 23.96264 1 3 ack 40 ------- 0 1.0 0.0 22 54
r 23.962747 1 3 ack 40 ------- 0 1.0 0.0 22 54
+ 23.962747 3 2 ack 40 ------- 0 1.0 0.0 22 54
- 23.962747 3 2 ack 40 ------- 0 1.0 0.0 22 54
r 24.14608 3 2 ack 40 ------- 0 1.0 0.0 22 54
+ 24.14608 2 4 ack 40 ------- 0 1.0 0.0 22 54
- 24.14608 2 4 ack 40 ------- 0 1.0 0.0 22 54
r 24.329414 2 4 ack 40 ------- 0 1.0 0.0 22 54
+ 24.329414 4 0 ack 40 ------- 0 1.0 0.0 22 54
- 24.329414 4 0 ack 40 ------- 0 1.0 0.0 22 54
r 24.32952 4 0 ack 40 ------- 0 1.0 0.0 22 54
+ 24.32952 0 4 tcp 1040 ------- 0 0.0 1.0 28 55
- 24.32952 0 4 tcp 1040 ------- 0 0.0 1.0 28 55
r 24.332294 0 4 tcp 1040 ------- 0 0.0 1.0 28 55
+ 24.332294 4 2 tcp 1040 ------- 0 0.0 1.0 28 55
- 24.526534 4 2 tcp 1040 ------- 0 0.0 1.0 25 49
r 24.676534 4 2 tcp 1040 ------- 0 0.0 1.0 24 47
+ 24.676534 2 3 tcp 1040 ------- 0 0.0 1.0 24 47
- 24.676534 2 3 tcp 1040 ------- 0 0.0 1.0 24 47
r 24.826534 2 3 tcp 1040 ------- 0 0.0 1.0 23 45
+ 24.826534 3 1 tcp 1040 ------- 0 0.0 1.0 23 45
- 24.826534 3 1 tcp 1040 ------- 0 0.0 1.0 23 45
r 24.829307 3 1 tcp 1040 ------- 0 0.0 1.0 23 45
+ 24.829307 1 3 ack 40 ------- 0 1.0 0.0 23 56
- 24.829307 1 3 ack 40 ------- 0 1.0 0.0 23 56
r 24.829414 1 3 ack 40 ------- 0 1.0 0.0 23 56
+ 24.829414 3 2 ack 40 ------- 0 1.0 0.0 23 56
- 24.829414 3 2 ack 40 ------- 0 1.0 0.0 23 56
r 25.012747 3 2 ack 40 ------- 0 1.0 0.0 23 56